
*************** JDFTx 1.0.0  The playground for joint density functional theory ****************

Start date and time: Thu Apr 28 15:19:19 2016
Running on hosts (process indices):  node2004 ( 0 )
Executable /home/yalcin/JDFTx_cFluid/build/jdftx_gpu with command-line: -i W15OH1-confining.in -o W15OH1-confining.out
gpuInit: Found compatible cuda device 0 'Tesla M2070'
gpuInit: Selected device 0
Maximum cpu threads by process: 1
Run totals: 1 processes, 1 threads, 1 GPUs
Command map WARNING: 'ion-vel' forbids 'ion', but not vice versa (making this so)
Command map WARNING: 'target-mu' forbids 'elec-initial-charge', but not vice versa (making this so)


Input parsed successfully to the following command list (including defaults):

basis kpoint-dependent
coords-type cartesian
core-overlap-check none
coulomb-interaction Periodic
davidson-band-ratio 1.1
debug  Fluid
dump End State IonicPositions Lattice ElecDensity FluidDensity BandEigs Ecomponents FluidDebug
dump-name W15OH1-confining.$VAR
elec-cutoff 20
elec-eigen-algo Davidson
elec-ex-corr gga-PBE
elec-initial-charge 1.000000
electronic-minimize  \
	dirUpdateScheme      PolakRibiere \
	linminMethod         DirUpdateRecommended \
	nIterations          200 \
	history              15 \
	knormThreshold       0 \
	energyDiffThreshold  1e-08 \
	nEnergyDiff          2 \
	alphaTstart          1 \
	alphaTmin            1e-10 \
	updateTestStepSize   yes \
	alphaTreduceFactor   0.1 \
	alphaTincreaseFactor 3 \
	nAlphaAdjustMax      3 \
	wolfeEnergy          0.0001 \
	wolfeGradient        0.9 \
	fdTest               no \
	linTest              no
exchange-regularization WignerSeitzTruncated
fluid ClassicalDFT 298.000000 1.013250
fluid-ex-corr lda-TF lda-PZ
fluid-gummel-loop 20 1.000000e-07
fluid-minimize  \
	dirUpdateScheme      PolakRibiere \
	linminMethod         DirUpdateRecommended \
	nIterations          100 \
	history              15 \
	knormThreshold       0 \
	energyDiffThreshold  1e-08 \
	nEnergyDiff          2 \
	alphaTstart          1 \
	alphaTmin            1e-10 \
	updateTestStepSize   yes \
	alphaTreduceFactor   0.1 \
	alphaTincreaseFactor 3 \
	nAlphaAdjustMax      3 \
	wolfeEnergy          0.0001 \
	wolfeGradient        0.9 \
	fdTest               no \
	linTest              no
fluid-solvent H2O 55.338 ScalarEOS \
	epsBulk 78.4 \
	pMol 0.92466 \
	epsInf 1 \
	Pvap 1.06736e-10 \
	sigmaBulk 4.62e-05 \
	Rvdw 2.61727 \
	Res 1.42 \
	epsLJ 0 \
	representation MuEps \
	s2quadType 7design24 \
	quad_nBeta 0 \
	quad_nAlpha 0 \
	quad_nGamma 0 \
	translationMode LinearSpline \
	Nnorm 0
fluid-vdwScale  0.488
forces-output-coords Positions
initial-state ../t=0/W15OH1-confining.$VAR
inverseKohnSham-minimize  \
	dirUpdateScheme      PolakRibiere \
	linminMethod         DirUpdateRecommended \
	nIterations          100 \
	history              15 \
	knormThreshold       0 \
	energyDiffThreshold  1e-08 \
	nEnergyDiff          2 \
	alphaTstart          1 \
	alphaTmin            1e-10 \
	updateTestStepSize   yes \
	alphaTreduceFactor   0.1 \
	alphaTincreaseFactor 3 \
	nAlphaAdjustMax      3 \
	wolfeEnergy          0.0001 \
	wolfeGradient        0.9 \
	fdTest               no \
	linTest              no
ion H  -1.047296764470864   0.505011685683666   0.697085793699727 0
ion H   0.214448544796136  -2.422478363062334  -0.827423329252273 0
ion H  -4.877477439494865  -4.813950018135333  -0.107407515681273 0
ion H  -2.257283464594865  -5.964258122527334  -0.804428584632273 0
ion H  -5.059219814367865   3.168096306830666  -2.293710814963273 0
ion H  -7.591376903069864   3.676271658873666  -0.504152659045273 0
ion H  -5.439521111766864   2.139223390843666   4.828791545525727 0
ion H  -2.318435625015864   1.760213870436666   5.004476990487727 0
ion H  -7.141073599642866  -1.310277221558334   0.493864077327727 0
ion H  -4.746321088780864  -0.776666937843334   1.771255619135727 0
ion H  -0.152352353978864   2.266525244730666   7.858277003771727 0
ion H   1.778451246801136   1.008768990405666   5.840272276187727 0
ion H  -0.468985674319864   4.481210961575665  -7.482615295532273 0
ion H   1.590525955503135   2.554038598005666  -6.781210678748273 0
ion H   3.152750099113136  -0.136629159526334   0.628030883202727 0
ion H   5.115896828650135  -0.572201561564334   2.771855987871727 0
ion H   4.795615479745136   1.497730945796666  -3.533811949626273 0
ion H   3.959522151478135  -1.015612409136334  -5.145865696009273 0
ion H   0.637964641754135  -4.898825156719334   0.754448639663727 0
ion H   3.064669789991135  -6.694075921194334   4.662914780816727 0
ion H   2.026061322510135  -6.029844739843332   7.039061368423727 0
ion H   2.669060270086136  -4.703584428965333  -3.620730316669273 0
ion H   5.283395328962134  -4.773309560379333  -5.031816879477272 0
ion H   5.605371032300134  -0.874416284513334   7.048637002774727 0
ion H   3.498810894856135  -3.004567971353334   5.615178692038727 0
ion H   0.267020107450135   7.305435985674666   3.038259570609727 0
ion H   1.565948754815135   4.829479060956666   4.064160924127727 0
ion H  -3.040936806488864  -0.177461791357334  -3.111819146643274 0
ion H  -2.412717902883864   1.647882862658666  -5.445603219399272 0
ion H   1.372204977736136   6.025287699830666  -0.508232467450273 0
ion H   0.770589470988135   3.361907234702666  -1.792511595037273 0
ion O   0.329395846071135   0.351448923147666  -0.492852632194273 0
ion O  -4.021148276120864  -6.516320817753334  -0.222823738823273 0
ion O  -5.819155514911865   4.294623067706665  -0.987722276209273 0
ion O  -4.028309291527864   0.927166347079666   4.554645755919727 0
ion O  -5.438207488803865  -1.932101628932334   0.545184648182727 0
ion O   0.483769512139135   2.500844011502665   6.130185182053727 0
ion O  -0.095857091759864   2.679157872873664  -7.547443040108271 0
ion O   5.030217020204135  -0.436981366792334   0.840779753405727 0
ion O   4.453308129575135   0.889964491761666  -5.227744954675273 0
ion O   0.429502971369136  -4.400356318830334  -0.994478817204273 0
ion O   1.711825465523136  -5.496109241273333   5.234363309174727 0
ion O   3.438179303378136  -4.267224936401335  -5.252230978191273 0
ion O   4.157805513780136  -1.145219177325334   5.849059638384725 0
ion O   1.840835656460136   6.497980917415664   3.080803804115727 0
ion O  -3.788528282876864   0.972098414282666  -4.362853106260273 0
ion O   1.265003232818136   5.203314482687666  -2.099741113998273 0
ion-species /home/yalcin/JDFT/.pseudopotentials/GBRV/h.uspp
ion-species /home/yalcin/JDFT/.pseudopotentials/GBRV/o.uspp
ion-width 0
ionic-minimize  \
	dirUpdateScheme      L-BFGS \
	linminMethod         DirUpdateRecommended \
	nIterations          0 \
	history              15 \
	knormThreshold       0.0001 \
	energyDiffThreshold  1e-06 \
	nEnergyDiff          2 \
	alphaTstart          1 \
	alphaTmin            1e-10 \
	updateTestStepSize   yes \
	alphaTreduceFactor   0.1 \
	alphaTincreaseFactor 3 \
	nAlphaAdjustMax      3 \
	wolfeEnergy          0.0001 \
	wolfeGradient        0.9 \
	fdTest               no \
	linTest              no
kpoint   0.000000000000   0.000000000000   0.000000000000  1.00000000000000
kpoint-folding 1 1 1 
latt-move-scale 1 1 1
latt-scale 1 1 1 
lattice  \
	  35.000000000000000    0.000000000000000    0.000000000000000  \
	   0.000000000000000   35.000000000000000    0.000000000000000  \
	   0.000000000000000    0.000000000000000   35.000000000000000 
lattice-minimize  \
	dirUpdateScheme      L-BFGS \
	linminMethod         DirUpdateRecommended \
	nIterations          0 \
	history              15 \
	knormThreshold       0 \
	energyDiffThreshold  1e-06 \
	nEnergyDiff          2 \
	alphaTstart          1 \
	alphaTmin            1e-10 \
	updateTestStepSize   yes \
	alphaTreduceFactor   0.1 \
	alphaTincreaseFactor 3 \
	nAlphaAdjustMax      3 \
	wolfeEnergy          0.0001 \
	wolfeGradient        0.9 \
	fdTest               no \
	linTest              no
lcao-params -1 1e-06 0.001
pcm-variant GLSSA13
reorthogonalize-orbitals 20 1.5
spintype no-spin
subspace-rotation-factor 30
symmetries none no



---------- Initializing the Grid ----------
R = 
[         35          0          0  ]
[          0         35          0  ]
[          0          0         35  ]
unit cell volume = 42875
G =
[    0.17952          0          0  ]
[          0    0.17952          0  ]
[          0          0    0.17952  ]
Minimum fftbox size, Smin = [  140  140  140  ]
Chosen fftbox size, S = [  140  140  140  ]

---------- Exchange Correlation functional ----------
Initalized PBE GGA exchange.
Initalized PBE GGA correlation.

---------- Setting up pseudopotentials ----------
Width of ionic core gaussian charges (only for fluid interactions / plotting) set to 0

Reading pseudopotential file '/home/yalcin/JDFT/.pseudopotentials/GBRV/h.uspp':
  Title: H.  Created by USPP 7.3.6 on 14-9-2013
  Reference state energy: -0.458802.  1 valence electrons in orbitals:
    |100>  occupation: 1  eigenvalue: -0.238596
  lMax: 0  lLocal: 1  QijEcut: 5
  2 projectors sampled on a log grid with 395 points:
    l: 0  eig: -0.238595  rCut: 0.9
    l: 0  eig: 0.450000  rCut: 0.9
  Transforming local potential to a uniform radial grid of dG=0.02 with 1094 points.
  Transforming nonlocal projectors to a uniform radial grid of dG=0.02 with 432 points.
  Transforming density augmentations to a uniform radial grid of dG=0.02 with 1094 points.
  Transforming atomic orbitals to a uniform radial grid of dG=0.02 with 432 points.
  Transforming overlap'd orbitals to a uniform radial grid of dG=0.02 with 432 points.
  Core radius for overlap checks: 0.90 bohrs.

Reading pseudopotential file '/home/yalcin/JDFT/.pseudopotentials/GBRV/o.uspp':
  Title: O.  Created by USPP 7.3.6 on 3-2-2014
  Reference state energy: -15.894388.  6 valence electrons in orbitals:
    |200>  occupation: 2  eigenvalue: -0.878823
    |210>  occupation: 4  eigenvalue: -0.332131
  lMax: 2  lLocal: 2  QijEcut: 6
  5 projectors sampled on a log grid with 511 points:
    l: 0  eig: -0.878823  rCut: 1.25
    l: 0  eig: 0.000000  rCut: 1.25
    l: 1  eig: -0.332132  rCut: 1.25
    l: 1  eig: 0.000000  rCut: 1.25
    l: 2  eig: 1.000000  rCut: 1.25
  Partial core density with radius 0.7
  Transforming core density to a uniform radial grid of dG=0.02 with 1094 points.
  Transforming local potential to a uniform radial grid of dG=0.02 with 1094 points.
  Transforming nonlocal projectors to a uniform radial grid of dG=0.02 with 432 points.
  Transforming density augmentations to a uniform radial grid of dG=0.02 with 1094 points.
  Transforming atomic orbitals to a uniform radial grid of dG=0.02 with 432 points.
  Transforming overlap'd orbitals to a uniform radial grid of dG=0.02 with 432 points.
  Core radius for overlap checks: 1.25 bohrs.

Folded 1 k-points by 1x1x1 to 1 k-points.

---------- Setting up k-points, bands, fillings ----------
No reducable k-points. 
Computing the number of bands and number of electrons
Calculating initial fillings.
nElectrons: 128.000000   nBands: 64   nStates: 1

----- Setting up reduced wavefunction bases (one per k-point) -----
average nbasis = 183251.000 , ideal nbasis = 183165.267

Initializing van der Waals corrections
	NOTE: vdW corrections apply only for interactions with fluid.
	 H:  C6:    2.43 Eh-a0^6  R0: 1.892 a0
	 O:  C6:   12.14 Eh-a0^6  R0: 2.536 a0

---------- Setting up ewald sum ----------
Optimum gaussian width for ewald sums = 7.350132 bohr.
Real space sum over 343 unit cells with max indices [  3  3  3  ]
Reciprocal space sum over 6859 terms with max indices [  9  9  9  ]

---------- Allocating electronic variables ----------
Initializing wave functions:  reading from '../t=0/W15OH1-confining.wfns'
----- createFluidSolver() ----- (Fluid-side solver setup)
   Initializing fluid molecule 'H2O'
     Initializing site 'O'
       Electron density: proportional to exp(-r/0.36935)*erfc((r-0.51523)/0.36823) with norm 6.826
       Charge density: gaussian nuclear width 0.478731 with net site charge 0.826
       Polarizability: cuspless exponential with width 0.32 and norm 3.73
       Hard sphere radius: 2.57003 bohrs
       Positions in reference frame:
         [ +0.000000 +0.000000 +0.000000 ]
     Initializing site 'H'
       Electron density: proportional to exp(-r/0.34641)*erfc((r-0)/0.390882) with norm 0.587
       Charge density: gaussian nuclear width 0.377945 with net site charge -0.413
       Polarizability: cuspless exponential with width 0.39 and norm 3.3
       Positions in reference frame:
         [ +0.000000 -1.441945 +1.122523 ]
         [ +0.000000 +1.441945 +1.122523 ]
     Net charge: 0   dipole magnitude: 0.927204
     Initializing spherical shell mfKernel with radius 2.61727 Bohr
     deltaS corrections:
       site 'O': -7.54299
       site 'H': -6.83917
Initializing fluid mixture at T=298.000000 K ...
   Generating SO(3)/Z2 quadrature for 'H2O' with 96 nodes:
     From 24-point quadrature '7-design' on S2 x 4 uniform samples on S1/Z2.
     Verifying exactness to jMax = 7 ... Done (MaxError~1e-15, RMSerror~3e-16.)
Adjusting fluid pressure to p=1.013250 bar
				       Fex(H2O) =  -4.5051e-05
				       MixedFMT =   1.1453e-05
				       Fex(H2O) =  -4.4356e-05
				       MixedFMT =   1.1144e-05
				       Fex(H2O) =  -4.4704e-05
				       MixedFMT =   1.1298e-05
				       Fex(H2O) =  -4.4878e-05
				       MixedFMT =   1.1375e-05
				       Fex(H2O) =  -4.4964e-05
				       MixedFMT =   1.1414e-05
				       Fex(H2O) =  -4.5008e-05
				       MixedFMT =   1.1433e-05
				       Fex(H2O) =  -4.5030e-05
				       MixedFMT =   1.1443e-05
				       Fex(H2O) =  -4.5040e-05
				       MixedFMT =   1.1448e-05
				       Fex(H2O) =  -4.5046e-05
				       MixedFMT =   1.1450e-05
				       Fex(H2O) =  -4.5049e-05
				       MixedFMT =   1.1452e-05
				       Fex(H2O) =  -4.5047e-05
				       MixedFMT =   1.1451e-05
				       Fex(H2O) =  -4.5048e-05
				       MixedFMT =   1.1451e-05
				       Fex(H2O) =  -4.5047e-05
				       MixedFMT =   1.1451e-05
				       Fex(H2O) =  -4.5048e-05
				       MixedFMT =   1.1451e-05
				       Fex(H2O) =  -4.5048e-05
				       MixedFMT =   1.1451e-05
				       Fex(H2O) =  -4.5048e-05
				       MixedFMT =   1.1451e-05
				       Fex(H2O) =  -4.5048e-05
				       MixedFMT =   1.1451e-05
				       Fex(H2O) =  -4.5048e-05
				       MixedFMT =   1.1451e-05
				       Fex(H2O) =  -4.5048e-05
				       MixedFMT =   1.1451e-05
				       Fex(H2O) =  -4.5048e-05
				       MixedFMT =   1.1451e-05
				       Fex(H2O) =  -4.5048e-05
				       MixedFMT =   1.1451e-05
				       Fex(H2O) =  -4.5048e-05
				       MixedFMT =   1.1451e-05
				       Fex(H2O) =  -4.5048e-05
				       MixedFMT =   1.1451e-05
				       Fex(H2O) =  -4.5048e-05
				       MixedFMT =   1.1451e-05
				       Fex(H2O) =  -4.5048e-05
				       MixedFMT =   1.1451e-05
				       Fex(H2O) =  -4.5048e-05
				       MixedFMT =   1.1451e-05
				       Fex(H2O) =  -4.5048e-05
				       MixedFMT =   1.1451e-05
				       Fex(H2O) =  -4.5048e-05
				       MixedFMT =   1.1451e-05
				       Fex(H2O) =  -4.5048e-05
				       MixedFMT =   1.1451e-05
				       Fex(H2O) =  -4.5048e-05
				       MixedFMT =   1.1451e-05
				       Fex(H2O) =  -4.5048e-05
				       MixedFMT =   1.1451e-05
				       Fex(H2O) =  -4.5048e-05
				       MixedFMT =   1.1451e-05
				       Fex(H2O) =  -4.5048e-05
				       MixedFMT =   1.1451e-05
				       Fex(H2O) =  -4.5048e-05
				       MixedFMT =   1.1451e-05
				       Fex(H2O) =  -4.5048e-05
				       MixedFMT =   1.1451e-05
				       Fex(H2O) =  -4.5048e-05
				       MixedFMT =   1.1451e-05
				       Fex(H2O) =  -4.5048e-05
				       MixedFMT =   1.1451e-05
   Component 'H2O' at bulk density 4.938040e-03 bohr^-3 (with vapor pressure ~ 3.1 KPa and chemical potential -0.01 H)
   Local polarization-density correlation factors, Crot: 4.10757  Cpol: none/disabled
				       Fex(H2O) =  -4.5055e-05
				       MixedFMT =   1.1454e-05
				       Fex(H2O) =  -4.5041e-05
				       MixedFMT =   1.1448e-05

------- Fluid Exchange Correlation functional -------
Initalized Slater LDA exchange.
Initalized Perdew-Zunger LDA correlation.
Initalized Thomas-Fermi LDA kinetic energy.
Initialized Grimme Pair Potentials for vdW interactions with scale factor 0.488.

Bulk electron density of the liquid: 3.950432e-02 bohr^-3
Electron deep in fluid experiences coupling potential: 0.165882 H

Reading fluid state from '../t=0/W15OH1-confining.fluidState'


---- Citations for features of the code used in this run ----

   Software package:
      R. Sundararaman, D. Gunceler, K. Letchworth-Weaver, K.A. Schwarz and T.A. Arias, JDFTx, available from http://jdftx.sourceforge.net (2012)

   Algebraic framework:
      S. Ismail-Beigi and T.A. Arias, Computer Physics Communications 128, 1 (2000)

   gga-PBE exchange-correlation functional:
      J.P. Perdew, K. Burke and M. Ernzerhof, Phys. Rev. Lett. 77, 3865 (1996)

   Van der Waals correction pair-potentials:
      S. Grimme, J. Comput. Chem. 27, 1787 (2006)

   Framework of Joint Density Functional Theory:
      S.A. Petrosyan SA, A.A. Rigos and T.A. Arias, J Phys Chem B. 109, 15436 (2005)

   Rigid-molecule density functional theory framework:
   Scalar-EOS liquid functional:
      R. Sundararaman and T.A. Arias, arXiv:1302.0026

   lda-PZ exchange-correlation functional:
      J.P. Perdew and A. Zunger, Phys. Rev. B 23, 5048 (1981)

   Thomas-Fermi kinetic energy functional:
      L.H. Thomas, Proc. Cambridge Phil. Soc. 23, 542 (1927)
      E. Fermi, Rend. Accad. Naz. Lincei 6, 602 (1927)

   Convolution-coupling for Joint Density Functional Theory:
      K. Letchworth-Weaver, R. Sundararaman and T.A. Arias, (under preparation)

   Total energy minimization:
      T.A. Arias, M.C. Payne and J.D. Joannopoulos, Phys. Rev. Lett. 69, 1077 (1992)

This list may not be complete. Please suggest additional citations and report
any other bugs by creating a ticket at https://sourceforge.net/p/jdftx/tickets

				            +pV =        0.0001476600785010
				        Coulomb =        0.1108661795139002
				     ExtCoulomb =       -0.2527398492091695
				       Fex(H2O) =       -1.7085674492383554
				Fmix(ConvCoupling) =        0.0595583031668525
				Fmix(VDWCoupling) =       -0.0386057676499584
				       MixedFMT =        0.4331199550618473
				     PhiNI(H2O) =        1.3562000265538185
				        PsqCell =        0.0000031278449952

-------- Electron <-> Fluid self-consistency loop -----------

---------------------- Fluid Minimization # 1 -----------------------
				            +pV =        0.0001476600785010
				        Coulomb =        0.1108661795139002
				     ExtCoulomb =       -0.2527398492091695
				       Fex(H2O) =       -1.7085674492383554
				Fmix(ConvCoupling) =        0.0595583031668525
				Fmix(VDWCoupling) =       -0.0386057676499584
				       MixedFMT =        0.4331199550618473
				     PhiNI(H2O) =        1.3562000265538185
				        PsqCell =        0.0000031278449952
FluidMinimize: Iter:   0  Etot: -0.040017813877568  |grad|_K:  2.888e-06  alpha:  1.000e+00
				            +pV =        0.0001476600785010
				        Coulomb =       79.3049305563979630
				     ExtCoulomb =       -2.0667900723870209
				       Fex(H2O) =                      -nan
				Fmix(ConvCoupling) =        2.7794577155017635
				Fmix(VDWCoupling) =       -0.3831577730285710
				       MixedFMT =                      -nan
				     PhiNI(H2O) =      -34.5926964993523214
				        PsqCell =        0.3824588410675905
FluidMinimize: 	Test step failed with Etot = -nan, reducing alphaT to 1.000000e-01.
				            +pV =        0.0001476600785010
				        Coulomb =        0.1109278455360587
				     ExtCoulomb =       -0.2530984199156544
				       Fex(H2O) =       -1.7086791747119194
				Fmix(ConvCoupling) =        0.0599237097950720
				Fmix(VDWCoupling) =       -0.0386633655147864
				       MixedFMT =        0.4331406763262204
				     PhiNI(H2O) =        1.3563654876065405
				        PsqCell =        0.0000031056436042
				            +pV =        0.0001476600785010
				        Coulomb =        0.1108686542338349
				     ExtCoulomb =       -0.2527521033400815
				       Fex(H2O) =       -1.7085715341126051
				Fmix(ConvCoupling) =        0.0595673070361613
				Fmix(VDWCoupling) =       -0.0386075894405109
				       MixedFMT =        0.4331208701775226
				     PhiNI(H2O) =        1.3562054795283158
				        PsqCell =        0.0000031258438122
FluidMinimize: Iter:   1  Etot: -0.040018129995050  |grad|_K:  1.392e-06  alpha:  4.845e-03  linmin: -8.663e-01  cgtest:  8.663e-01
FluidMinimize: Encountered beta<0, resetting CG.
				            +pV =        0.0001476600785010
				        Coulomb =        0.1108703028428083
				     ExtCoulomb =       -0.2527579557866492
				       Fex(H2O) =       -1.7085740091633772
				Fmix(ConvCoupling) =        0.0595711304698057
				Fmix(VDWCoupling) =       -0.0386082711240518
				       MixedFMT =        0.4331216580250126
				     PhiNI(H2O) =        1.3562081427133832
				        PsqCell =        0.0000031241475160
FluidMinimize: 	Predicted alpha/alphaT>3.000000, increasing alphaT to 1.453614e-02.
				            +pV =        0.0001476600785010
				        Coulomb =        0.1108736181436407
				     ExtCoulomb =       -0.2527698460192564
				       Fex(H2O) =       -1.7085790103528578
				Fmix(ConvCoupling) =        0.0595790244632894
				Fmix(VDWCoupling) =       -0.0386096665929479
				       MixedFMT =        0.4331232393837209
				     PhiNI(H2O) =        1.3562135596136842
				        PsqCell =        0.0000031207529477
				            +pV =        0.0001476600785010
				        Coulomb =        0.1108741949975081
				     ExtCoulomb =       -0.2527719313166299
				       Fex(H2O) =       -1.7085798837627721
				Fmix(ConvCoupling) =        0.0595804259974528
				Fmix(VDWCoupling) =       -0.0386099127401042
				       MixedFMT =        0.4331235141264390
				     PhiNI(H2O) =        1.3562145104417254
				        PsqCell =        0.0000031201645977
FluidMinimize: Iter:   2  Etot: -0.040018302013283  |grad|_K:  1.448e-06  alpha:  1.622e-02  linmin:  1.154e-02  cgtest: -1.154e-02
FluidMinimize: Converged (|Delta Etot|<1.000000e-05 for 2 iters).
				            +pV =        0.0001476600785010
				        Coulomb =        0.1108741949975081
				     ExtCoulomb =       -0.2527719313166299
				       Fex(H2O) =       -1.7085798837627721
				Fmix(ConvCoupling) =        0.0595804259974528
				Fmix(VDWCoupling) =       -0.0386099127401042
				       MixedFMT =        0.4331235141264390
				     PhiNI(H2O) =        1.3562145104417254
				        PsqCell =        0.0000031201645977
Fluid minimize took 4.10e+01 s.

Fluid minimization # 1 changed total free energy by -4.881357e-07

-------------------- Electronic Minimization # 1 ---------------------
ElecMinimize: Iter:   0  Etot: -276.066706925671156  |grad|_K:  2.693e-08  alpha:  1.000e+00
ElecMinimize: Iter:   1  Etot: -276.066706931251758  |grad|_K:  9.691e-09  alpha:  6.558e-01  linmin: -5.056e-05  cgtest:  6.134e-05
ElecMinimize: Iter:   2  Etot: -276.066706932077125  |grad|_K:  4.632e-09  alpha:  7.490e-01  linmin: -9.860e-04  cgtest:  1.435e-03
ElecMinimize: Converged (|Delta Etot|<1.000000e-05 for 2 iters).
Setting wave functions to eigenvectors of Hamiltonian

Electronic minimization # 1 changed total free energy by -6.405969e-09

---------------------- Fluid Minimization # 2 -----------------------
				            +pV =        0.0001476600785010
				        Coulomb =        0.1108741949975081
				     ExtCoulomb =       -0.2527728532720150
				       Fex(H2O) =       -1.7085798837627721
				Fmix(ConvCoupling) =        0.0595800338086576
				Fmix(VDWCoupling) =       -0.0386099127401042
				       MixedFMT =        0.4331235141264390
				     PhiNI(H2O) =        1.3562145104417254
				        PsqCell =        0.0000031201645977
FluidMinimize: Iter:   0  Etot: -0.040019616157463  |grad|_K:  1.426e-06  alpha:  1.000e+00
				            +pV =        0.0001476600785010
				        Coulomb =        0.1110138137245295
				     ExtCoulomb =       -0.2529021458553810
				       Fex(H2O) =       -1.7088313160970814
				Fmix(ConvCoupling) =        0.0596835773239803
				Fmix(VDWCoupling) =       -0.0385921062786471
				       MixedFMT =        0.4332511137664146
				     PhiNI(H2O) =        1.3563532888527492
				        PsqCell =        0.0000030653370186
				            +pV =        0.0001476600785010
				        Coulomb =        0.1108793840744802
				     ExtCoulomb =       -0.2527468695146749
				       Fex(H2O) =       -1.7085876619670659
				Fmix(ConvCoupling) =        0.0595509547846689
				Fmix(VDWCoupling) =       -0.0386021829089636
				       MixedFMT =        0.4331314039926733
				     PhiNI(H2O) =        1.3562075319856204
				        PsqCell =        0.0000031161859860
FluidMinimize: 	Step increased Etot by 2.952869e-06, reducing alpha to 6.608001e-03.
				            +pV =        0.0001476600785010
				        Coulomb =        0.1108746408263896
				     ExtCoulomb =       -0.2527696955334620
				       Fex(H2O) =       -1.7085805205787348
				Fmix(ConvCoupling) =        0.0595762798914308
				Fmix(VDWCoupling) =       -0.0386090327457728
				       MixedFMT =        0.4331242953487896
				     PhiNI(H2O) =        1.3562135404409148
				        PsqCell =        0.0000031197454602
FluidMinimize: Iter:   1  Etot: -0.040019712526483  |grad|_K:  8.474e-07  alpha:  6.608e-03  linmin: -5.245e-01  cgtest:  5.245e-01
				            +pV =        0.0001476600785010
				        Coulomb =        0.1108755154464362
				     ExtCoulomb =       -0.2527717263050593
				       Fex(H2O) =       -1.7085825345517298
				Fmix(ConvCoupling) =        0.0595771985633746
				Fmix(VDWCoupling) =       -0.0386091828766343
				       MixedFMT =        0.4331251504184305
				     PhiNI(H2O) =        1.3562150330522775
				        PsqCell =        0.0000031200417578
FluidMinimize: 	Predicted alpha/alphaT>3.000000, increasing alphaT to 1.982400e-02.
				            +pV =        0.0001476600785010
				        Coulomb =        0.1108772659453077
				     ExtCoulomb =       -0.2527758031497836
				       Fex(H2O) =       -1.7085865670978135
				Fmix(ConvCoupling) =        0.0595790511919034
				Fmix(VDWCoupling) =       -0.0386094858195920
				       MixedFMT =        0.4331268611994355
				     PhiNI(H2O) =        1.3562180259324368
				        PsqCell =        0.0000031206332040
FluidMinimize: 	Predicted alpha/alphaT>3.000000, increasing alphaT to 5.947201e-02.
				            +pV =        0.0001476600785010
				        Coulomb =        0.1108825274452475
				     ExtCoulomb =       -0.2527881565884558
				       Fex(H2O) =       -1.7085987016423034
				Fmix(ConvCoupling) =        0.0595847319683429
				Fmix(VDWCoupling) =       -0.0386104161824842
				       MixedFMT =        0.4331319986045469
				     PhiNI(H2O) =        1.3562270660519846
				        PsqCell =        0.0000031223986544
FluidMinimize: 	Predicted alpha/alphaT>3.000000, increasing alphaT to 1.784160e-01.
				            +pV =        0.0001476600785010
				        Coulomb =        0.1109383673422866
				     ExtCoulomb =       -0.2529287324464667
				       Fex(H2O) =       -1.7087289493335744
				Fmix(ConvCoupling) =        0.0596557445137620
				Fmix(VDWCoupling) =       -0.0386221488799712
				       MixedFMT =        0.4331861601252527
				     PhiNI(H2O) =        1.3563272774273207
				        PsqCell =        0.0000031403080665
FluidMinimize: Iter:   2  Etot: -0.040021480864823  |grad|_K:  4.829e-06  alpha:  4.739e-01  linmin:  2.887e-02  cgtest: -7.483e-02
				            +pV =        0.0001476600785010
				        Coulomb =     8901.4332645942795352
				     ExtCoulomb =      -10.0174044215458196
				       Fex(H2O) =                      -nan
				Fmix(ConvCoupling) =       18.4081868262544361
				Fmix(VDWCoupling) =       -3.6048355723291992
				       MixedFMT =                      -nan
				     PhiNI(H2O) =    -4992.3041753846055144
				        PsqCell =       51.1761276406628625
FluidMinimize: 	Test step failed with Etot = -nan, reducing alphaT to 4.738949e-02.
				            +pV =        0.0001476600785010
				        Coulomb =        0.1111229986258469
				     ExtCoulomb =       -0.2533826897789941
				       Fex(H2O) =       -1.7091947012551740
				Fmix(ConvCoupling) =        0.0598801820283796
				Fmix(VDWCoupling) =       -0.0386589925977745
				       MixedFMT =        0.4333824538204057
				     PhiNI(H2O) =        1.3566795598659134
				        PsqCell =        0.0000032236180499
				            +pV =        0.0001476600785010
				        Coulomb =        0.1110182011973596
				     ExtCoulomb =       -0.2531047948913617
				       Fex(H2O) =       -1.7089297573677003
				Fmix(ConvCoupling) =        0.0597311882251574
				Fmix(VDWCoupling) =       -0.0386339118945377
				       MixedFMT =        0.4332729910545953
				     PhiNI(H2O) =        1.3564719358147781
				        PsqCell =        0.0000031812542637
FluidMinimize: Iter:   3  Etot: -0.040023306528944  |grad|_K:  4.251e-06  alpha:  2.121e-02  linmin:  2.330e-03  cgtest:  5.906e-01
				            +pV =        0.0001476600785010
				        Coulomb =        0.1110055036051654
				     ExtCoulomb =       -0.2530626376615753
				       Fex(H2O) =       -1.7089408828728274
				Fmix(ConvCoupling) =        0.0597004430537993
				Fmix(VDWCoupling) =       -0.0386301107870678
				       MixedFMT =        0.4332798217718960
				     PhiNI(H2O) =        1.3564708682112796
				        PsqCell =        0.0000032427651919
				            +pV =        0.0001476600785010
				        Coulomb =        0.1109998834979360
				     ExtCoulomb =       -0.2530457670088481
				       Fex(H2O) =       -1.7089473711250613
				Fmix(ConvCoupling) =        0.0596892717074127
				Fmix(VDWCoupling) =       -0.0386288010709976
				       MixedFMT =        0.4332833421869269
				     PhiNI(H2O) =        1.3564720141569122
				        PsqCell =        0.0000032717337522
FluidMinimize: Iter:   4  Etot: -0.040026495843466  |grad|_K:  3.809e-06  alpha:  3.163e-02  linmin: -2.753e-02  cgtest: -4.709e-02
				            +pV =        0.0001476600785010
				        Coulomb =        0.1109913521353250
				     ExtCoulomb =       -0.2531135473176251
				       Fex(H2O) =       -1.7089570791383348
				Fmix(ConvCoupling) =        0.0597619051557245
				Fmix(VDWCoupling) =       -0.0386424560148442
				       MixedFMT =        0.4332790575359218
				     PhiNI(H2O) =        1.3565021118217464
				        PsqCell =        0.0000032579179775
				            +pV =        0.0001476600785010
				        Coulomb =        0.1109942911387972
				     ExtCoulomb =       -0.2530872423598224
				       Fex(H2O) =       -1.7089527229336632
				Fmix(ConvCoupling) =        0.0597331085659079
				Fmix(VDWCoupling) =       -0.0386371771443980
				       MixedFMT =        0.4332804026450057
				     PhiNI(H2O) =        1.3564900231602484
				        PsqCell =        0.0000032627471271
FluidMinimize: Iter:   5  Etot: -0.040028394102297  |grad|_K:  3.133e-06  alpha:  2.065e-02  linmin: -6.393e-03  cgtest:  2.069e-01
				            +pV =        0.0001476600785010
				        Coulomb =        0.1109938852500946
				     ExtCoulomb =       -0.2530959023865825
				       Fex(H2O) =       -1.7089268490542557
				Fmix(ConvCoupling) =        0.0597423825559105
				Fmix(VDWCoupling) =       -0.0386366026573465
				       MixedFMT =        0.4332682179955396
				     PhiNI(H2O) =        1.3564756425687983
				        PsqCell =        0.0000031979170607
				            +pV =        0.0001476600785010
				        Coulomb =        0.1109937150985730
				     ExtCoulomb =       -0.2530896935545138
				       Fex(H2O) =       -1.7089395224377737
				Fmix(ConvCoupling) =        0.0597358079070460
				Fmix(VDWCoupling) =       -0.0386366590296312
				       MixedFMT =        0.4332743174656929
				     PhiNI(H2O) =        1.3564821916597001
				        PsqCell =        0.0000032315740731
FluidMinimize: Iter:   6  Etot: -0.040028951238333  |grad|_K:  2.259e-06  alpha:  1.021e-02  linmin: -2.283e-03  cgtest:  5.651e-02
				            +pV =        0.0001476600785010
				        Coulomb =        0.1109877172823862
				     ExtCoulomb =       -0.2530807481169057
				       Fex(H2O) =       -1.7089200340112602
				Fmix(ConvCoupling) =        0.0597336618416477
				Fmix(VDWCoupling) =       -0.0386356883738317
				       MixedFMT =        0.4332656275601195
				     PhiNI(H2O) =        1.3564691554016051
				        PsqCell =        0.0000032174730182
FluidMinimize: 	Predicted alpha/alphaT>3.000000, increasing alphaT to 3.061808e-02.
				            +pV =        0.0001476600785010
				        Coulomb =        0.1109760539980712
				     ExtCoulomb =       -0.2530648192924699
				       Fex(H2O) =       -1.7088816187596980
				Fmix(ConvCoupling) =        0.0597313840472964
				Fmix(VDWCoupling) =       -0.0386340264597364
				       MixedFMT =        0.4332483525752187
				     PhiNI(H2O) =        1.3564439943416335
				        PsqCell =        0.0000031885516133
				            +pV =        0.0001476600785010
				        Coulomb =        0.1109756448983352
				     ExtCoulomb =       -0.2530642982385259
				       Fex(H2O) =       -1.7088802567917158
				Fmix(ConvCoupling) =        0.0597313527549233
				Fmix(VDWCoupling) =       -0.0386339738809255
				       MixedFMT =        0.4332477364374792
				     PhiNI(H2O) =        1.3564431158377945
				        PsqCell =        0.0000031874969632
FluidMinimize: Iter:   7  Etot: -0.040029831407171  |grad|_K:  2.945e-06  alpha:  3.135e-02  linmin: -2.031e-05  cgtest:  1.001e-01
				            +pV =        0.0001476600785010
				        Coulomb =        0.1109079239979746
				     ExtCoulomb =       -0.2528717659133499
				       Fex(H2O) =       -1.7087317854668964
				Fmix(ConvCoupling) =        0.0596204988044349
				Fmix(VDWCoupling) =       -0.0386127493148383
				       MixedFMT =        0.4331895015412293
				     PhiNI(H2O) =        1.3563167905378333
				        PsqCell =        0.0000031960271205
				            +pV =        0.0001476600785010
				        Coulomb =        0.1109268980552774
				     ExtCoulomb =       -0.2529251966363310
				       Fex(H2O) =       -1.7087736423357309
				Fmix(ConvCoupling) =        0.0596506898613285
				Fmix(VDWCoupling) =       -0.0386186060989467
				       MixedFMT =        0.4332059883620782
				     PhiNI(H2O) =        1.3563521384318138
				        PsqCell =        0.0000031942192739
FluidMinimize: Iter:   8  Etot: -0.040030876062736  |grad|_K:  1.696e-06  alpha:  2.243e-02  linmin: -4.880e-03  cgtest: -1.273e-01
				            +pV =        0.0001476600785010
				        Coulomb =        0.1109097268428345
				     ExtCoulomb =       -0.2528922403456961
				       Fex(H2O) =       -1.7087316128466863
				Fmix(ConvCoupling) =        0.0596373860229136
				Fmix(VDWCoupling) =       -0.0386158440095812
				       MixedFMT =        0.4331875732436681
				     PhiNI(H2O) =        1.3563226700724837
				        PsqCell =        0.0000031814774107
FluidMinimize: 	Predicted alpha/alphaT>3.000000, increasing alphaT to 6.728184e-02.
				            +pV =        0.0001476600785010
				        Coulomb =        0.1108757589966425
				     ExtCoulomb =       -0.2528282201586812
				       Fex(H2O) =       -1.7086482626116695
				Fmix(ConvCoupling) =        0.0596127424992261
				Fmix(VDWCoupling) =       -0.0386106230188598
				       MixedFMT =        0.4331508955204638
				     PhiNI(H2O) =        1.3562647502828227
				        PsqCell =        0.0000031557846289
				            +pV =        0.0001476600785010
				        Coulomb =        0.1108643891017563
				     ExtCoulomb =       -0.2528071732360611
				       Fex(H2O) =       -1.7086202959073618
				Fmix(ConvCoupling) =        0.0596050522089939
				Fmix(VDWCoupling) =       -0.0386089545959785
				       MixedFMT =        0.4331385369417973
				     PhiNI(H2O) =        1.3562454869123035
				        PsqCell =        0.0000031470266527
FluidMinimize: Iter:   9  Etot: -0.040032151469397  |grad|_K:  1.753e-06  alpha:  8.245e-02  linmin:  5.636e-02  cgtest: -6.063e-02
				            +pV =        0.0001476600785010
				        Coulomb =        0.1108562412510619
				     ExtCoulomb =       -0.2528905034930963
				       Fex(H2O) =       -1.7085261786400465
				Fmix(ConvCoupling) =        0.0596968422848079
				Fmix(VDWCoupling) =       -0.0386204399692926
				       MixedFMT =        0.4330875267529844
				     PhiNI(H2O) =        1.3562172273189961
				        PsqCell =        0.0000029978319449
				            +pV =        0.0001476600785010
				        Coulomb =        0.1108617242942079
				     ExtCoulomb =       -0.2528202701080404
				       Fex(H2O) =       -1.7085999762159978
				Fmix(ConvCoupling) =        0.0596201993966901
				Fmix(VDWCoupling) =       -0.0386108611430877
				       MixedFMT =        0.4331278452959333
				     PhiNI(H2O) =        1.3562381133495587
				        PsqCell =        0.0000031184144474
FluidMinimize: Iter:  10  Etot: -0.040032446637788  |grad|_K:  1.826e-06  alpha:  1.702e-02  linmin: -5.521e-02  cgtest:  2.693e-01
				            +pV =        0.0001476600785010
				        Coulomb =        0.1108635377150354
				     ExtCoulomb =       -0.2528165458789284
				       Fex(H2O) =       -1.7085871724022850
				Fmix(ConvCoupling) =        0.0596136525747539
				Fmix(VDWCoupling) =       -0.0386088284120244
				       MixedFMT =        0.4331231159416285
				     PhiNI(H2O) =        1.3562285083971302
				        PsqCell =        0.0000030989470879
				            +pV =        0.0001476600785010
				        Coulomb =        0.1108658111084285
				     ExtCoulomb =       -0.2528128461609883
				       Fex(H2O) =       -1.7085717901652666
				Fmix(ConvCoupling) =        0.0596067695904452
				Fmix(VDWCoupling) =       -0.0386064937155262
				       MixedFMT =        0.4331173750432368
				     PhiNI(H2O) =        1.3562172200634013
				        PsqCell =        0.0000030752404272
FluidMinimize: Iter:  11  Etot: -0.040033218917341  |grad|_K:  3.397e-06  alpha:  3.781e-02  linmin: -1.341e-02  cgtest: -1.514e-01
				            +pV =        0.0001476600785010
				        Coulomb =        0.1108669407206006
				     ExtCoulomb =       -0.2528010594512585
				       Fex(H2O) =       -1.7084965321854300
				Fmix(ConvCoupling) =        0.0595869184478346
				Fmix(VDWCoupling) =       -0.0385996256166294
				       MixedFMT =        0.4330870481780080
				     PhiNI(H2O) =        1.3561702654202075
				        PsqCell =        0.0000030252784203
				            +pV =        0.0001476600785010
				        Coulomb =        0.1108666580793501
				     ExtCoulomb =       -0.2528016737506248
				       Fex(H2O) =       -1.7085060802151959
				Fmix(ConvCoupling) =        0.0595884925754575
				Fmix(VDWCoupling) =       -0.0386003689563933
				       MixedFMT =        0.4330909659852480
				     PhiNI(H2O) =        1.3561759373470545
				        PsqCell =        0.0000030318315408
FluidMinimize: Iter:  12  Etot: -0.040035377025062  |grad|_K:  2.721e-06  alpha:  3.285e-02  linmin: -1.119e-02  cgtest: -2.114e-01
				            +pV =        0.0001476600785010
				        Coulomb =        0.1108782521739231
				     ExtCoulomb =       -0.2528267002870161
				       Fex(H2O) =       -1.7084803774937525
				Fmix(ConvCoupling) =        0.0595936211128816
				Fmix(VDWCoupling) =       -0.0385996685830019
				       MixedFMT =        0.4330798168501259
				     PhiNI(H2O) =        1.3561666502259511
				        PsqCell =        0.0000029904615549
FluidMinimize: 	Predicted alpha/alphaT>3.000000, increasing alphaT to 9.853720e-02.
				            +pV =        0.0001476600785010
				        Coulomb =        0.1109046128988466
				     ExtCoulomb =       -0.2528907824271708
				       Fex(H2O) =       -1.7084333218959871
				Fmix(ConvCoupling) =        0.0596157866735751
				Fmix(VDWCoupling) =       -0.0386002040367710
				       MixedFMT =        0.4330584957413430
				     PhiNI(H2O) =        1.3561543191204284
				        PsqCell =        0.0000029051479318
				            +pV =        0.0001476600785010
				        Coulomb =        0.1109175967685565
				     ExtCoulomb =       -0.2529248613354477
				       Fex(H2O) =       -1.7084140157576500
				Fmix(ConvCoupling) =        0.0596302230990347
				Fmix(VDWCoupling) =       -0.0386012041804022
				       MixedFMT =        0.4330493754429319
				     PhiNI(H2O) =        1.3561512445582746
				        PsqCell =        0.0000028662589950
FluidMinimize: Iter:  13  Etot: -0.040041115067206  |grad|_K:  4.977e-06  alpha:  1.279e-01  linmin: -2.229e-02  cgtest: -1.052e-01
				            +pV =        0.0001476600785010
				        Coulomb =        0.1112406377060866
				     ExtCoulomb =       -0.2548858871570158
				       Fex(H2O) =       -1.7085224495870766
				Fmix(ConvCoupling) =        0.0621354662447260
				Fmix(VDWCoupling) =       -0.0388989878725733
				       MixedFMT =        0.4329486088494074
				     PhiNI(H2O) =        1.3568372345318018
				        PsqCell =        0.0000027050818316
				            +pV =        0.0001476600785010
				        Coulomb =        0.1109203355516686
				     ExtCoulomb =       -0.2529409388675210
				       Fex(H2O) =       -1.7084103925425507
				Fmix(ConvCoupling) =        0.0596411308646481
				Fmix(VDWCoupling) =       -0.0386030415653703
				       MixedFMT =        0.4330467301260977
				     PhiNI(H2O) =        1.3561538461368019
				        PsqCell =        0.0000028592825303
FluidMinimize: Iter:  14  Etot: -0.040041810935195  |grad|_K:  3.757e-06  alpha:  2.421e-03  linmin: -1.470e-01  cgtest:  9.869e-01
FluidMinimize: Encountered beta<0, resetting CG.
				            +pV =        0.0001476600785010
				        Coulomb =        0.1109189671516139
				     ExtCoulomb =       -0.2529436185089180
				       Fex(H2O) =       -1.7084114064762550
				Fmix(ConvCoupling) =        0.0596450395246819
				Fmix(VDWCoupling) =       -0.0386039994206391
				       MixedFMT =        0.4330466071082044
				     PhiNI(H2O) =        1.3561557509174587
				        PsqCell =        0.0000028633336924
FluidMinimize: 	Predicted alpha/alphaT>3.000000, increasing alphaT to 7.264496e-03.
				            +pV =        0.0001476600785010
				        Coulomb =        0.1109162291100586
				     ExtCoulomb =       -0.2529493813491890
				       Fex(H2O) =       -1.7084135495898538
				Fmix(ConvCoupling) =        0.0596535483485212
				Fmix(VDWCoupling) =       -0.0386059971467217
				       MixedFMT =        0.4330463707708338
				     PhiNI(H2O) =        1.3561597755772161
				        PsqCell =        0.0000028716323621
				            +pV =        0.0001476600785010
				        Coulomb =        0.1109153542174882
				     ExtCoulomb =       -0.2529513390181287
				       Fex(H2O) =       -1.7084142674915526
				Fmix(ConvCoupling) =        0.0596564692110206
				Fmix(VDWCoupling) =       -0.0386066590104942
				       MixedFMT =        0.4330462980341501
				     PhiNI(H2O) =        1.3561611235317705
				        PsqCell =        0.0000028743400826
FluidMinimize: Iter:  15  Etot: -0.040042486107162  |grad|_K:  2.393e-06  alpha:  8.811e-03  linmin:  6.582e-02  cgtest: -6.582e-02
				            +pV =        0.0001476600785010
				        Coulomb =        0.1109090384861087
				     ExtCoulomb =       -0.2529394888724550
				       Fex(H2O) =       -1.7084128136164685
				Fmix(ConvCoupling) =        0.0596520081958403
				Fmix(VDWCoupling) =       -0.0386062999245048
				       MixedFMT =        0.4330455663358027
				     PhiNI(H2O) =        1.3561584575777244
				        PsqCell =        0.0000028842788212
FluidMinimize: 	Predicted alpha/alphaT>3.000000, increasing alphaT to 2.643408e-02.
				            +pV =        0.0001476600785010
				        Coulomb =        0.1108965735868822
				     ExtCoulomb =       -0.2529162123310694
				       Fex(H2O) =       -1.7084101018980633
				Fmix(ConvCoupling) =        0.0596434283142599
				Fmix(VDWCoupling) =       -0.0386056375219958
				       MixedFMT =        0.4330442054729414
				     PhiNI(H2O) =        1.3561533523266767
				        PsqCell =        0.0000029044739278
FluidMinimize: 	Predicted alpha/alphaT>3.000000, increasing alphaT to 7.930225e-02.
				            +pV =        0.0001476600785010
				        Coulomb =        0.1108605074974158
				     ExtCoulomb =       -0.2528498140910678
				       Fex(H2O) =       -1.7084035462851435
				Fmix(ConvCoupling) =        0.0596205006628878
				Fmix(VDWCoupling) =       -0.0386041041566886
				       MixedFMT =        0.4330409317252325
				     PhiNI(H2O) =        1.3561398732180789
				        PsqCell =        0.0000029674802834
				            +pV =        0.0001476600785010
				        Coulomb =        0.1108567271579959
				     ExtCoulomb =       -0.2528429474514656
				       Fex(H2O) =       -1.7084029805697292
				Fmix(ConvCoupling) =        0.0596182816975244
				Fmix(VDWCoupling) =       -0.0386039798931586
				       MixedFMT =        0.4330406495516613
				     PhiNI(H2O) =        1.3561385831833697
				        PsqCell =        0.0000029744998719
FluidMinimize: Iter:  16  Etot: -0.040045031745429  |grad|_K:  2.329e-06  alpha:  8.502e-02  linmin:  1.003e-02  cgtest:  3.014e-01
				            +pV =        0.0001476600785010
				        Coulomb =        0.1108465469510775
				     ExtCoulomb =       -0.2526981406662662
				       Fex(H2O) =       -1.7084263134688031
				Fmix(ConvCoupling) =        0.0595012647141857
				Fmix(VDWCoupling) =       -0.0385828024718412
				       MixedFMT =        0.4330637759586862
				     PhiNI(H2O) =        1.3561075933461488
				        PsqCell =        0.0000030535282633
				            +pV =        0.0001476600785010
				        Coulomb =        0.1108544952362365
				     ExtCoulomb =       -0.2528107938766562
				       Fex(H2O) =       -1.7084064226303664
				Fmix(ConvCoupling) =        0.0595902185019099
				Fmix(VDWCoupling) =       -0.0385991301502349
				       MixedFMT =        0.4330450320814832
				     PhiNI(H2O) =        1.3561305124328777
				        PsqCell =        0.0000029888953950
FluidMinimize: Iter:  17  Etot: -0.040045439430854  |grad|_K:  2.432e-06  alpha:  1.682e-02  linmin:  1.162e-01  cgtest: -1.527e-01
				            +pV =        0.0001476600785010
				        Coulomb =        0.1108625492014205
				     ExtCoulomb =       -0.2528226238216707
				       Fex(H2O) =       -1.7084348623970842
				Fmix(ConvCoupling) =        0.0595937107652134
				Fmix(VDWCoupling) =       -0.0386004907121537
				       MixedFMT =        0.4330577470197986
				     PhiNI(H2O) =        1.3561475352699892
				        PsqCell =        0.0000030048519236
				            +pV =        0.0001476600785010
				        Coulomb =        0.1108608633537494
				     ExtCoulomb =       -0.2528199722866376
				       Fex(H2O) =       -1.7084288298159465
				Fmix(ConvCoupling) =        0.0595927301246064
				Fmix(VDWCoupling) =       -0.0386001675344023
				       MixedFMT =        0.4330550706747490
				     PhiNI(H2O) =        1.3561438531999155
				        PsqCell =        0.0000030014565555
FluidMinimize: Iter:  18  Etot: -0.040045790748910  |grad|_K:  1.274e-06  alpha:  1.330e-02  linmin: -9.437e-03  cgtest:  5.204e-01
				            +pV =        0.0001476600785010
				        Coulomb =        0.1108701262406785
				     ExtCoulomb =       -0.2528526957854411
				       Fex(H2O) =       -1.7084455807714845
				Fmix(ConvCoupling) =        0.0596139038321297
				Fmix(VDWCoupling) =       -0.0386041031267302
				       MixedFMT =        0.4330607379484842
				     PhiNI(H2O) =        1.3561610346531525
				        PsqCell =        0.0000029920674536
				            +pV =        0.0001476600785010
				        Coulomb =        0.1108715414929614
				     ExtCoulomb =       -0.2528577130078286
				       Fex(H2O) =       -1.7084481374776337
				Fmix(ConvCoupling) =        0.0596171726654262
				Fmix(VDWCoupling) =       -0.0386047075070308
				       MixedFMT =        0.4330616010682897
				     PhiNI(H2O) =        1.3561636651713580
				        PsqCell =        0.0000029906269666
FluidMinimize: Iter:  19  Etot: -0.040045926888990  |grad|_K:  1.321e-06  alpha:  1.532e-02  linmin:  1.054e-02  cgtest: -1.044e-02
				            +pV =        0.0001476600785010
				        Coulomb =        0.1108861503394147
				     ExtCoulomb =       -0.2528897600594378
				       Fex(H2O) =       -1.7084761431637900
				Fmix(ConvCoupling) =        0.0596317757935765
				Fmix(VDWCoupling) =       -0.0386076530902771
				       MixedFMT =        0.4330731692471660
				     PhiNI(H2O) =        1.3561856834284876
				        PsqCell =        0.0000029839651271
				            +pV =        0.0001476600785010
				        Coulomb =        0.1108968727681269
				     ExtCoulomb =       -0.2529134661251633
				       Fex(H2O) =       -1.7084967741517061
				Fmix(ConvCoupling) =        0.0596427649184221
				Fmix(VDWCoupling) =       -0.0386098555031827
				       MixedFMT =        0.4330816770793950
				     PhiNI(H2O) =        1.3562019667759944
				        PsqCell =        0.0000029791341891
FluidMinimize: Iter:  20  Etot: -0.040046175025424  |grad|_K:  1.411e-06  alpha:  2.655e-02  linmin:  1.939e-02  cgtest:  5.785e-02
				            +pV =        0.0001476600785010
				        Coulomb =        0.1109222775396816
				     ExtCoulomb =       -0.2529576750595127
				       Fex(H2O) =       -1.7085556181301245
				Fmix(ConvCoupling) =        0.0596577168406043
				Fmix(VDWCoupling) =       -0.0386139095269077
				       MixedFMT =        0.4331073135396775
				     PhiNI(H2O) =        1.3562428880071746
				        PsqCell =        0.0000029953845201
				            +pV =        0.0001476600785010
				        Coulomb =        0.1109152686119730
				     ExtCoulomb =       -0.2529453089755576
				       Fex(H2O) =       -1.7085394988782612
				Fmix(ConvCoupling) =        0.0596533652686304
				Fmix(VDWCoupling) =       -0.0386127688031511
				       MixedFMT =        0.4331003041012704
				     PhiNI(H2O) =        1.3562316091236502
				        PsqCell =        0.0000029911523833
FluidMinimize: Iter:  21  Etot: -0.040046378320561  |grad|_K:  1.529e-06  alpha:  1.931e-02  linmin: -1.632e-03  cgtest:  6.083e-02
				            +pV =        0.0001476600785010
				        Coulomb =        0.1109461381868122
				     ExtCoulomb =       -0.2530065475241841
				       Fex(H2O) =       -1.7085944224500460
				Fmix(ConvCoupling) =        0.0596784358514384
				Fmix(VDWCoupling) =       -0.0386175455290322
				       MixedFMT =        0.4331237030802195
				     PhiNI(H2O) =        1.3562728233577428
				        PsqCell =        0.0000029785315054
				            +pV =        0.0001476600785010
				        Coulomb =        0.1109931539436987
				     ExtCoulomb =       -0.2531003423530057
				       Fex(H2O) =       -1.7086780499292569
				Fmix(ConvCoupling) =        0.0597174129378431
				Fmix(VDWCoupling) =       -0.0386249473326477
				       MixedFMT =        0.4331593117519301
				     PhiNI(H2O) =        1.3563358307649664
				        PsqCell =        0.0000029595668483
FluidMinimize: Iter:  22  Etot: -0.040047010571123  |grad|_K:  1.031e-06  alpha:  4.856e-02  linmin: -1.533e-02  cgtest:  8.426e-03
				            +pV =        0.0001476600785010
				        Coulomb =        0.1110070336288817
				     ExtCoulomb =       -0.2531156875338506
				       Fex(H2O) =       -1.7087079129073210
				Fmix(ConvCoupling) =        0.0597173732472953
				Fmix(VDWCoupling) =       -0.0386249909532809
				       MixedFMT =        0.4331731179462775
				     PhiNI(H2O) =        1.3563532958488314
				        PsqCell =        0.0000029574282219
				            +pV =        0.0001476600785010
				        Coulomb =        0.1110023539359925
				     ExtCoulomb =       -0.2531103448076817
				       Fex(H2O) =       -1.7086978133254158
				Fmix(ConvCoupling) =        0.0597171345431349
				Fmix(VDWCoupling) =       -0.0386249439091205
				       MixedFMT =        0.4331684672668983
				     PhiNI(H2O) =        1.3563473289352970
				        PsqCell =        0.0000029580766141
FluidMinimize: Iter:  23  Etot: -0.040047199205780  |grad|_K:  2.123e-06  alpha:  3.222e-02  linmin:  3.803e-04  cgtest: -1.571e-02
				            +pV =        0.0001476600785010
				        Coulomb =        0.1110210785185706
				     ExtCoulomb =       -0.2531467013846540
				       Fex(H2O) =       -1.7087684792909588
				Fmix(ConvCoupling) =        0.0597324977088078
				Fmix(VDWCoupling) =       -0.0386295807752200
				       MixedFMT =        0.4331980862244039
				     PhiNI(H2O) =        1.3563938922823715
				        PsqCell =        0.0000029924067947
FluidMinimize: 	Predicted alpha/alphaT>3.000000, increasing alphaT to 9.666427e-02.
				            +pV =        0.0001476600785010
				        Coulomb =        0.1110613142220617
				     ExtCoulomb =       -0.2532337542972108
				       Fex(H2O) =       -1.7089146403227640
				Fmix(ConvCoupling) =        0.0597759600675261
				Fmix(VDWCoupling) =       -0.0386412076710567
				       MixedFMT =        0.4332581613138462
				     PhiNI(H2O) =        1.3564942627887850
				        PsqCell =        0.0000030598985971
				            +pV =        0.0001476600785010
				        Coulomb =        0.1110522372141872
				     ExtCoulomb =       -0.2532130800588040
				       Fex(H2O) =       -1.7088824112795347
				Fmix(ConvCoupling) =        0.0597648868965166
				Fmix(VDWCoupling) =       -0.0386383931690989
				       MixedFMT =        0.4332450637870224
				     PhiNI(H2O) =        1.3564716208672321
				        PsqCell =        0.0000030455545385
FluidMinimize: Iter:  24  Etot: -0.040049370109440  |grad|_K:  2.837e-06  alpha:  8.273e-02  linmin:  2.298e-02  cgtest: -9.964e-02
				            +pV =        0.0001476600785010
				        Coulomb =        0.1111108491893482
				     ExtCoulomb =       -0.2532543794687896
				       Fex(H2O) =       -1.7091351003581889
				Fmix(ConvCoupling) =        0.0597575849842400
				Fmix(VDWCoupling) =       -0.0386434328870572
				       MixedFMT =        0.4333566081115395
				     PhiNI(H2O) =        1.3566150278920692
				        PsqCell =        0.0000032401654484
				            +pV =        0.0001476600785010
				        Coulomb =        0.1110631810221548
				     ExtCoulomb =       -0.2532103982104669
				       Fex(H2O) =       -1.7089370997075521
				Fmix(ConvCoupling) =        0.0597517668726937
				Fmix(VDWCoupling) =       -0.0386376280889658
				       MixedFMT =        0.4332702546931495
				     PhiNI(H2O) =        1.3564988456714031
				        PsqCell =        0.0000030937664206
FluidMinimize: Iter:  25  Etot: -0.040050323902662  |grad|_K:  2.716e-06  alpha:  1.918e-02  linmin: -4.434e-02  cgtest:  6.860e-01
				            +pV =        0.0001476600785010
				        Coulomb =        0.1110641563525308
				     ExtCoulomb =       -0.2531953507159984
				       Fex(H2O) =       -1.7089298882695596
				Fmix(ConvCoupling) =        0.0597348568742433
				Fmix(VDWCoupling) =       -0.0386333140118788
				       MixedFMT =        0.4332693717106334
				     PhiNI(H2O) =        1.3564883019815808
				        PsqCell =        0.0000030771252761
				            +pV =        0.0001476600785010
				        Coulomb =        0.1110641289898721
				     ExtCoulomb =       -0.2531956872664474
				       Fex(H2O) =       -1.7089300562094880
				Fmix(ConvCoupling) =        0.0597352264780824
				Fmix(VDWCoupling) =       -0.0386334147643423
				       MixedFMT =        0.4332693922307915
				     PhiNI(H2O) =        1.3564885444889025
				        PsqCell =        0.0000030775412828
FluidMinimize: Iter:  26  Etot: -0.040051128432845  |grad|_K:  2.803e-06  alpha:  1.870e-02  linmin: -1.277e-02  cgtest: -8.970e-02
				            +pV =        0.0001476600785010
				        Coulomb =        0.1110514398079858
				     ExtCoulomb =       -0.2531697242472307
				       Fex(H2O) =       -1.7089078565225999
				Fmix(ConvCoupling) =        0.0597221922634645
				Fmix(VDWCoupling) =       -0.0386306390658433
				       MixedFMT =        0.4332608173066667
				     PhiNI(H2O) =        1.3564709478319845
				        PsqCell =        0.0000030766595318
				            +pV =        0.0001476600785010
				        Coulomb =        0.1110491055181798
				     ExtCoulomb =       -0.2531651947397078
				       Fex(H2O) =       -1.7089038141903772
				Fmix(ConvCoupling) =        0.0597201672229914
				Fmix(VDWCoupling) =       -0.0386301799479272
				       MixedFMT =        0.4332592259783071
				     PhiNI(H2O) =        1.3564678368179304
				        PsqCell =        0.0000030764623290
FluidMinimize: Iter:  27  Etot: -0.040052116799774  |grad|_K:  2.113e-06  alpha:  2.220e-02  linmin: -1.655e-02  cgtest: -9.401e-02
				            +pV =        0.0001476600785010
				        Coulomb =        0.1110254935579233
				     ExtCoulomb =       -0.2530996422823004
				       Fex(H2O) =       -1.7088640710469023
				Fmix(ConvCoupling) =        0.0596806452997214
				Fmix(VDWCoupling) =       -0.0386227434139025
				       MixedFMT =        0.4332448629582537
				     PhiNI(H2O) =        1.3564318981013401
				        PsqCell =        0.0000030921506363
				            +pV =        0.0001476600785010
				        Coulomb =        0.1110187888610182
				     ExtCoulomb =       -0.2530811875944531
				       Fex(H2O) =       -1.7088526634690033
				Fmix(ConvCoupling) =        0.0596697057385143
				Fmix(VDWCoupling) =       -0.0386206535813029
				       MixedFMT =        0.4332407095716247
				     PhiNI(H2O) =        1.3564216907449420
				        PsqCell =        0.0000030964001677
FluidMinimize: Iter:  28  Etot: -0.040052853249992  |grad|_K:  2.572e-06  alpha:  2.866e-02  linmin: -2.025e-02  cgtest: -5.950e-02
				            +pV =        0.0001476600785010
				        Coulomb =        0.1109912709024941
				     ExtCoulomb =       -0.2530678453930034
				       Fex(H2O) =       -1.7087881369906328
				Fmix(ConvCoupling) =        0.0596815322147677
				Fmix(VDWCoupling) =       -0.0386211571107092
				       MixedFMT =        0.4332101226496846
				     PhiNI(H2O) =        1.3563895099784511
				        PsqCell =        0.0000030523980815
				            +pV =        0.0001476600785010
				        Coulomb =        0.1109902917801633
				     ExtCoulomb =       -0.2530675257654598
				       Fex(H2O) =       -1.7087858137638907
				Fmix(ConvCoupling) =        0.0596821337075113
				Fmix(VDWCoupling) =       -0.0386212008770331
				       MixedFMT =        0.4332090054021293
				     PhiNI(H2O) =        1.3563884070640915
				        PsqCell =        0.0000030507320976
FluidMinimize: Iter:  29  Etot: -0.040053991641890  |grad|_K:  1.489e-06  alpha:  2.972e-02  linmin:  7.885e-03  cgtest: -4.877e-01
				            +pV =        0.0001476600785010
				        Coulomb =        0.1109660609969760
				     ExtCoulomb =       -0.2530166624276437
				       Fex(H2O) =       -1.7087262274574906
				Fmix(ConvCoupling) =        0.0596564898001475
				Fmix(VDWCoupling) =       -0.0386151245456445
				       MixedFMT =        0.4331843574901202
				     PhiNI(H2O) =        1.3563459596537819
				        PsqCell =        0.0000030379370235
				            +pV =        0.0001476600785010
				        Coulomb =        0.1109559267728859
				     ExtCoulomb =       -0.2529957552999929
				       Fex(H2O) =       -1.7087012846627421
				Fmix(ConvCoupling) =        0.0596462362094883
				Fmix(VDWCoupling) =       -0.0386126550598816
				       MixedFMT =        0.4331739983053449
				     PhiNI(H2O) =        1.3563283365696026
				        PsqCell =        0.0000030324794038
FluidMinimize: Iter:  30  Etot: -0.040054504607390  |grad|_K:  2.753e-06  alpha:  4.224e-02  linmin: -1.016e-02  cgtest:  8.129e-02
				            +pV =        0.0001476600785010
				        Coulomb =        0.1108600211897490
				     ExtCoulomb =       -0.2528606600316736
				       Fex(H2O) =       -1.7084451483962269
				Fmix(ConvCoupling) =        0.0596081783004365
				Fmix(VDWCoupling) =       -0.0385996078382841
				       MixedFMT =        0.4330611066194100
				     PhiNI(H2O) =        1.3561694728596341
				        PsqCell =        0.0000029498792547
				            +pV =        0.0001476600785010
				        Coulomb =        0.1108747467355908
				     ExtCoulomb =       -0.2528799910883268
				       Fex(H2O) =       -1.7084840793829061
				Fmix(ConvCoupling) =        0.0596122832773887
				Fmix(VDWCoupling) =       -0.0386013063908911
				       MixedFMT =        0.4330784007948446
				     PhiNI(H2O) =        1.3561931363903035
				        PsqCell =        0.0000029619225254
FluidMinimize: Iter:  31  Etot: -0.040056187662970  |grad|_K:  4.352e-06  alpha:  3.574e-02  linmin:  1.240e-02  cgtest: -3.041e-01
				            +pV =        0.0001476600785010
				        Coulomb =        0.1106706142586545
				     ExtCoulomb =       -0.2526432127171760
				       Fex(H2O) =       -1.7078798706798881
				Fmix(ConvCoupling) =        0.0595923336322954
				Fmix(VDWCoupling) =       -0.0385793121583841
				       MixedFMT =        0.4328090820472548
				     PhiNI(H2O) =        1.3558394115819175
				        PsqCell =        0.0000027046816832
				            +pV =        0.0001476600785010
				        Coulomb =        0.1108451396748458
				     ExtCoulomb =       -0.2528353444117760
				       Fex(H2O) =       -1.7083927563426591
				Fmix(ConvCoupling) =        0.0595966960354133
				Fmix(VDWCoupling) =       -0.0385957596367333
				       MixedFMT =        0.4330387126906070
				     PhiNI(H2O) =        1.3561358096362033
				        PsqCell =        0.0000029206734163
FluidMinimize: Iter:  32  Etot: -0.040056921602182  |grad|_K:  4.423e-06  alpha:  5.195e-03  linmin: -4.258e-02  cgtest:  9.825e-01
				            +pV =        0.0001476600785010
				        Coulomb =        0.1108487040609976
				     ExtCoulomb =       -0.2528303633561733
				       Fex(H2O) =       -1.7083909976358995
				Fmix(ConvCoupling) =        0.0595871256369520
				Fmix(VDWCoupling) =       -0.0385935176629233
				       MixedFMT =        0.4330391289624621
				     PhiNI(H2O) =        1.3561316976819673
				        PsqCell =        0.0000029103510015
				            +pV =        0.0001476600785010
				        Coulomb =        0.1108501449506829
				     ExtCoulomb =       -0.2528286150256968
				       Fex(H2O) =       -1.7083903619761498
				Fmix(ConvCoupling) =        0.0595837224287976
				Fmix(VDWCoupling) =       -0.0385926657652469
				       MixedFMT =        0.4330393027064641
				     PhiNI(H2O) =        1.3561301759776216
				        PsqCell =        0.0000029062593071
FluidMinimize: Iter:  33  Etot: -0.040057730365719  |grad|_K:  1.665e-06  alpha:  7.299e-03  linmin: -1.043e-01  cgtest:  5.796e-02
				            +pV =        0.0001476600785010
				        Coulomb =        0.1108534295183606
				     ExtCoulomb =       -0.2528335922933284
				       Fex(H2O) =       -1.7083960022613547
				Fmix(ConvCoupling) =        0.0595850889156821
				Fmix(VDWCoupling) =       -0.0385930242491823
				       MixedFMT =        0.4330417898086026
				     PhiNI(H2O) =        1.3561337930156108
				        PsqCell =        0.0000029069081514
FluidMinimize: 	Predicted alpha/alphaT>3.000000, increasing alphaT to 2.189553e-02.
				            +pV =        0.0001476600785010
				        Coulomb =        0.1108600117711195
				     ExtCoulomb =       -0.2528436894168167
				       Fex(H2O) =       -1.7084073425603363
				Fmix(ConvCoupling) =        0.0595879949654119
				Fmix(VDWCoupling) =       -0.0385937688656264
				       MixedFMT =        0.4330467769934577
				     PhiNI(H2O) =        1.3561411149868443
				        PsqCell =        0.0000029082271929
FluidMinimize: 	Predicted alpha/alphaT>3.000000, increasing alphaT to 6.568660e-02.
				            +pV =        0.0001476600785010
				        Coulomb =        0.1108798750883400
				     ExtCoulomb =       -0.2528751127952867
				       Fex(H2O) =       -1.7084418319393337
				Fmix(ConvCoupling) =        0.0595980503571951
				Fmix(VDWCoupling) =       -0.0385962184229820
				       MixedFMT =        0.4330618418074870
				     PhiNI(H2O) =        1.3561637668243385
				        PsqCell =        0.0000029123330445
				            +pV =        0.0001476600785010
				        Coulomb =        0.1108916521732685
				     ExtCoulomb =       -0.2528943861924224
				       Fex(H2O) =       -1.7084624417606586
				Fmix(ConvCoupling) =        0.0596048665188249
				Fmix(VDWCoupling) =       -0.0385978062215306
				       MixedFMT =        0.4330707749604730
				     PhiNI(H2O) =        1.3561775592197889
				        PsqCell =        0.0000029148326310
FluidMinimize: Iter:  34  Etot: -0.040059206391124  |grad|_K:  2.390e-06  alpha:  9.145e-02  linmin: -4.373e-02  cgtest: -2.464e-02
				            +pV =        0.0001476600785010
				        Coulomb =        0.1109734537573522
				     ExtCoulomb =       -0.2529626785034933
				       Fex(H2O) =       -1.7086517106574204
				Fmix(ConvCoupling) =        0.0595957691293876
				Fmix(VDWCoupling) =       -0.0386028920730821
				       MixedFMT =        0.4331578520587948
				     PhiNI(H2O) =        1.3562832824107074
				        PsqCell =        0.0000030481749010
				            +pV =        0.0001476600785010
				        Coulomb =        0.1109167143431624
				     ExtCoulomb =       -0.2529086854342338
				       Fex(H2O) =       -1.7085237352922771
				Fmix(ConvCoupling) =        0.0595941812638614
				Fmix(VDWCoupling) =       -0.0385984617201925
				       MixedFMT =        0.4330995337451904
				     PhiNI(H2O) =        1.3562095873961233
				        PsqCell =        0.0000029616161177
FluidMinimize: Iter:  35  Etot: -0.040060244003747  |grad|_K:  3.260e-06  alpha:  3.073e-02  linmin: -4.535e-03  cgtest:  1.745e-02
				            +pV =        0.0001476600785010
				        Coulomb =        0.1110013904810736
				     ExtCoulomb =       -0.2531215329477607
				       Fex(H2O) =       -1.7086913238279662
				Fmix(ConvCoupling) =        0.0597128440690966
				Fmix(VDWCoupling) =       -0.0386241858779987
				       MixedFMT =        0.4331644621169471
				     PhiNI(H2O) =        1.3563472868042830
				        PsqCell =        0.0000029603503813
				            +pV =        0.0001476600785010
				        Coulomb =        0.1109606315404673
				     ExtCoulomb =       -0.2530179688949163
				       Fex(H2O) =       -1.7086112899979051
				Fmix(ConvCoupling) =        0.0596537914299660
				Fmix(VDWCoupling) =       -0.0386116149459179
				       MixedFMT =        0.4331336396678183
				     PhiNI(H2O) =        1.3562808926266716
				        PsqCell =        0.0000029618675309
FluidMinimize: Iter:  36  Etot: -0.040061296627784  |grad|_K:  1.229e-06  alpha:  1.624e-02  linmin: -4.574e-02  cgtest:  7.261e-01
FluidMinimize: Encountered beta<0, resetting CG.
				            +pV =        0.0001476600785010
				        Coulomb =        0.1109655256296946
				     ExtCoulomb =       -0.2530422565193691
				       Fex(H2O) =       -1.7086179310760337
				Fmix(ConvCoupling) =        0.0596711112765576
				Fmix(VDWCoupling) =       -0.0386146255077949
				       MixedFMT =        0.4331351574474476
				     PhiNI(H2O) =        1.3562909539481451
				        PsqCell =        0.0000029459842518
				            +pV =        0.0001476600785010
				        Coulomb =        0.1109668062757418
				     ExtCoulomb =       -0.2530485913171422
				       Fex(H2O) =       -1.7086196593377694
				Fmix(ConvCoupling) =        0.0596756587792555
				Fmix(VDWCoupling) =       -0.0386154103490737
				       MixedFMT =        0.4331355518381229
				     PhiNI(H2O) =        1.3562935774695288
				        PsqCell =        0.0000029418603363
FluidMinimize: Iter:  37  Etot: -0.040061464702499  |grad|_K:  1.422e-06  alpha:  2.039e-02  linmin:  1.736e-02  cgtest: -1.736e-02
				            +pV =        0.0001476600785010
				        Coulomb =        0.1109649389377997
				     ExtCoulomb =       -0.2530481334877221
				       Fex(H2O) =       -1.7086226987203750
				Fmix(ConvCoupling) =        0.0596760282597160
				Fmix(VDWCoupling) =       -0.0386159697938565
				       MixedFMT =        0.4331369497621689
				     PhiNI(H2O) =        1.3562965358668229
				        PsqCell =        0.0000029440992840
				            +pV =        0.0001476600785010
				        Coulomb =        0.1109643051464098
				     ExtCoulomb =       -0.2530482023565984
				       Fex(H2O) =       -1.7086238722242690
				Fmix(ConvCoupling) =        0.0596764140598651
				Fmix(VDWCoupling) =       -0.0386162086311838
				       MixedFMT =        0.4331374719263772
				     PhiNI(H2O) =        1.3562977235277958
				        PsqCell =        0.0000029448590122
FluidMinimize: Iter:  38  Etot: -0.040061763614090  |grad|_K:  1.175e-06  alpha:  2.770e-02  linmin:  1.797e-02  cgtest:  1.158e-01
				            +pV =        0.0001476600785010
				        Coulomb =        0.1109647914364231
				     ExtCoulomb =       -0.2530444109884829
				       Fex(H2O) =       -1.7086231795820033
				Fmix(ConvCoupling) =        0.0596711401260137
				Fmix(VDWCoupling) =       -0.0386151595646904
				       MixedFMT =        0.4331381126478026
				     PhiNI(H2O) =        1.3562960183719199
				        PsqCell =        0.0000029419586710
				            +pV =        0.0001476600785010
				        Coulomb =        0.1109656009607493
				     ExtCoulomb =       -0.2530403838508450
				       Fex(H2O) =       -1.7086225982750696
				Fmix(ConvCoupling) =        0.0596651740594183
				Fmix(VDWCoupling) =       -0.0386139417664453
				       MixedFMT =        0.4331390347557161
				     PhiNI(H2O) =        1.3562942675797063
				        PsqCell =        0.0000029383167440
FluidMinimize: Iter:  39  Etot: -0.040062248141525  |grad|_K:  1.368e-06  alpha:  6.344e-02  linmin: -2.972e-02  cgtest:  2.865e-02
				            +pV =        0.0001476600785010
				        Coulomb =        0.1109978425850688
				     ExtCoulomb =       -0.2531738246045626
				       Fex(H2O) =       -1.7086484026354567
				Fmix(ConvCoupling) =        0.0597577728995873
				Fmix(VDWCoupling) =       -0.0386282972471447
				       MixedFMT =        0.4331438936241029
				     PhiNI(H2O) =        1.3563406078543965
				        PsqCell =        0.0000028502211781
				            +pV =        0.0001476600785010
				        Coulomb =        0.1109709850133786
				     ExtCoulomb =       -0.2530627955452002
				       Fex(H2O) =       -1.7086268608448218
				Fmix(ConvCoupling) =        0.0596802429434433
				Fmix(VDWCoupling) =       -0.0386163333883928
				       MixedFMT =        0.4331398248123947
				     PhiNI(H2O) =        1.3563019667242715
				        PsqCell =        0.0000029232019151
FluidMinimize: Iter:  40  Etot: -0.040062387004511  |grad|_K:  8.591e-07  alpha:  1.166e-02  linmin: -8.088e-02  cgtest:  3.992e-02
				            +pV =        0.0001476600785010
				        Coulomb =        0.1109702631585017
				     ExtCoulomb =       -0.2530616543981928
				       Fex(H2O) =       -1.7086254454153675
				Fmix(ConvCoupling) =        0.0596798829049163
				Fmix(VDWCoupling) =       -0.0386162781690885
				       MixedFMT =        0.4331391042372340
				     PhiNI(H2O) =        1.3563010531465194
				        PsqCell =        0.0000029262113659
FluidMinimize: 	Predicted alpha/alphaT>3.000000, increasing alphaT to 3.498453e-02.
				            +pV =        0.0001476600785010
				        Coulomb =        0.1109688205475097
				     ExtCoulomb =       -0.2530594477446946
				       Fex(H2O) =       -1.7086226418073822
				Fmix(ConvCoupling) =        0.0596792449784829
				Fmix(VDWCoupling) =       -0.0386161846549146
				       MixedFMT =        0.4331376666050937
				     PhiNI(H2O) =        1.3562992710626531
				        PsqCell =        0.0000029322453139
FluidMinimize: 	Predicted alpha/alphaT>3.000000, increasing alphaT to 1.049536e-01.
				            +pV =        0.0001476600785010
				        Coulomb =        0.1109645004965722
				     ExtCoulomb =       -0.2530534381840072
				       Fex(H2O) =       -1.7086144521227258
				Fmix(ConvCoupling) =        0.0596779989048883
				Fmix(VDWCoupling) =       -0.0386160417723017
				       MixedFMT =        0.4331333828924211
				     PhiNI(H2O) =        1.3562942910459961
				        PsqCell =        0.0000029504630244
				            +pV =        0.0001476600785010
				        Coulomb =        0.1109531274471490
				     ExtCoulomb =       -0.2530420976060871
				       Fex(H2O) =       -1.7085944883524109
				Fmix(ConvCoupling) =        0.0596797967370009
				Fmix(VDWCoupling) =       -0.0386167081151196
				       MixedFMT =        0.4331222899476284
				     PhiNI(H2O) =        1.3562839089416383
				        PsqCell =        0.0000029993239722
FluidMinimize: Iter:  41  Etot: -0.040063511597728  |grad|_K:  3.246e-06  alpha:  2.897e-01  linmin:  4.445e-02  cgtest: -1.785e-01
				            +pV =        0.0001476600785010
				        Coulomb =        0.1185754279711180
				     ExtCoulomb =       -0.2643333700735850
				       Fex(H2O) =       -1.7133548458539056
				Fmix(ConvCoupling) =        0.1107103595149823
				Fmix(VDWCoupling) =       -0.0431536969380917
				       MixedFMT =        0.4953531746233881
				     PhiNI(H2O) =        1.3642856015868978
				        PsqCell =        0.0000299153956373
				            +pV =        0.0001476600785010
				        Coulomb =        0.1109530931419885
				     ExtCoulomb =       -0.2530419978754828
				       Fex(H2O) =       -1.7085944174852250
				Fmix(ConvCoupling) =        0.0596797383899883
				Fmix(VDWCoupling) =       -0.0386166980839539
				       MixedFMT =        0.4331222593844157
				     PhiNI(H2O) =        1.3562838486946946
				        PsqCell =        0.0000029994681881
FluidMinimize: Iter:  42  Etot: -0.040063514286885  |grad|_K:  3.246e-06  alpha:  3.228e-05  linmin: -1.140e-01  cgtest:  1.000e+00
				            +pV =        0.0001476600785010
				        Coulomb =        0.1109530885567175
				     ExtCoulomb =       -0.2530419190645101
				       Fex(H2O) =       -1.7085943954954430
				Fmix(ConvCoupling) =        0.0596796651982743
				Fmix(VDWCoupling) =       -0.0386166842455074
				       MixedFMT =        0.4331222573674745
				     PhiNI(H2O) =        1.3562838101043020
				        PsqCell =        0.0000029994833821
FluidMinimize: 	Predicted alpha/alphaT>3.000000, increasing alphaT to 9.685070e-05.
				            +pV =        0.0001476600785010
				        Coulomb =        0.1109530793854968
				     ExtCoulomb =       -0.2530417614858496
				       Fex(H2O) =       -1.7085943515330617
				Fmix(ConvCoupling) =        0.0596795188787809
				Fmix(VDWCoupling) =       -0.0386166565777289
				       MixedFMT =        0.4331222533359619
				     PhiNI(H2O) =        1.3562837329520083
				        PsqCell =        0.0000029995137709
FluidMinimize: 	Predicted alpha/alphaT>3.000000, increasing alphaT to 2.905521e-04.
				            +pV =        0.0001476600785010
				        Coulomb =        0.1109530518664276
				     ExtCoulomb =       -0.2530412890958679
				       Fex(H2O) =       -1.7085942197832498
				Fmix(ConvCoupling) =        0.0596790804319625
				Fmix(VDWCoupling) =       -0.0386165736472416
				       MixedFMT =        0.4331222412607000
				     PhiNI(H2O) =        1.3562835017228401
				        PsqCell =        0.0000029996049456
FluidMinimize: 	Predicted alpha/alphaT>3.000000, increasing alphaT to 8.716563e-04.
				            +pV =        0.0001476600785010
				        Coulomb =        0.1109509660674732
				     ExtCoulomb =       -0.2530072218273365
				       Fex(H2O) =       -1.7085848828941983
				Fmix(ConvCoupling) =        0.0596482036582273
				Fmix(VDWCoupling) =       -0.0386106409377721
				       MixedFMT =        0.4331214174142703
				     PhiNI(H2O) =        1.3562670586401926
				        PsqCell =        0.0000030064727487
FluidMinimize: Iter:  43  Etot: -0.040064433327894  |grad|_K:  1.275e-06  alpha:  1.484e-02  linmin: -2.854e-01  cgtest:  2.853e-01
				            +pV =        0.0001476600785010
				        Coulomb =        0.1109575622985600
				     ExtCoulomb =       -0.2530314856067582
				       Fex(H2O) =       -1.7085912846908584
				Fmix(ConvCoupling) =        0.0596642089415695
				Fmix(VDWCoupling) =       -0.0386132753709448
				       MixedFMT =        0.4331231021871662
				     PhiNI(H2O) =        1.3562759882819408
				        PsqCell =        0.0000029863993308
				            +pV =        0.0001476600785010
				        Coulomb =        0.1109562807011726
				     ExtCoulomb =       -0.2530267495221983
				       Fex(H2O) =       -1.7085900372206846
				Fmix(ConvCoupling) =        0.0596610542072540
				Fmix(VDWCoupling) =       -0.0386127594750152
				       MixedFMT =        0.4331227757486328
				     PhiNI(H2O) =        1.3562742411473439
				        PsqCell =        0.0000029902901000
FluidMinimize: Iter:  44  Etot: -0.040064544044894  |grad|_K:  7.652e-07  alpha:  1.200e-02  linmin:  4.481e-03  cgtest: -6.887e-02
				            +pV =        0.0001476600785010
				        Coulomb =        0.1109571100558982
				     ExtCoulomb =       -0.2530251373221336
				       Fex(H2O) =       -1.7085909352148609
				Fmix(ConvCoupling) =        0.0596585774489853
				Fmix(VDWCoupling) =       -0.0386123201337880
				       MixedFMT =        0.4331235543972312
				     PhiNI(H2O) =        1.3562738935541192
				        PsqCell =        0.0000029874976393
FluidMinimize: 	Predicted alpha/alphaT>3.000000, increasing alphaT to 3.599801e-02.
				            +pV =        0.0001476600785010
				        Coulomb =        0.1109587682617196
				     ExtCoulomb =       -0.2530220565044847
				       Fex(H2O) =       -1.7085927900305375
				Fmix(ConvCoupling) =        0.0596538185037474
				Fmix(VDWCoupling) =       -0.0386114718926700
				       MixedFMT =        0.4331251216586499
				     PhiNI(H2O) =        1.3562732924729921
				        PsqCell =        0.0000029819341491
				            +pV =        0.0001476600785010
				        Coulomb =        0.1109591733402348
				     ExtCoulomb =       -0.2530213324131899
				       Fex(H2O) =       -1.7085932548598921
				Fmix(ConvCoupling) =        0.0596526941560995
				Fmix(VDWCoupling) =       -0.0386112706970259
				       MixedFMT =        0.4331255065629841
				     PhiNI(H2O) =        1.3562731642740484
				        PsqCell =        0.0000029805790986
FluidMinimize: Iter:  45  Etot: -0.040064678979141  |grad|_K:  8.284e-07  alpha:  4.186e-02  linmin: -2.149e-02  cgtest:  2.054e-02
				            +pV =        0.0001476600785010
				        Coulomb =        0.1109680485199583
				     ExtCoulomb =       -0.2530435910385543
				       Fex(H2O) =       -1.7086077063336245
				Fmix(ConvCoupling) =        0.0596638929264230
				Fmix(VDWCoupling) =       -0.0386135273218736
				       MixedFMT =        0.4331315403391390
				     PhiNI(H2O) =        1.3562857589899240
				        PsqCell =        0.0000029521978648
FluidMinimize: 	Predicted alpha/alphaT>3.000000, increasing alphaT to 1.255835e-01.
				            +pV =        0.0001476600785010
				        Coulomb =        0.1109860393593180
				     ExtCoulomb =       -0.2530891289955252
				       Fex(H2O) =       -1.7086369144491296
				Fmix(ConvCoupling) =        0.0596871702921362
				Fmix(VDWCoupling) =       -0.0386181876730575
				       MixedFMT =        0.4331436924950854
				     PhiNI(H2O) =        1.3563114085938837
				        PsqCell =        0.0000028957082623
				            +pV =        0.0001476600785010
				        Coulomb =        0.1110051782704470
				     ExtCoulomb =       -0.2531381653513821
[...]
				            +pV =        0.0001476600785010
				        Coulomb =        0.1117885808714709
				     ExtCoulomb =       -0.2562627625522977
				       Fex(H2O) =       -1.7085696752480104
				Fmix(ConvCoupling) =        0.0606146220138015
				Fmix(VDWCoupling) =       -0.0386117211405195
				       MixedFMT =        0.4330944514991690
				     PhiNI(H2O) =        1.3567860004628745
				        PsqCell =        0.0000029557646926
FluidMinimize: Iter:  99  Etot: -0.041009888250318  |grad|_K:  6.755e-07  alpha:  2.077e-02  linmin:  6.800e-04  cgtest: -1.278e-01
				            +pV =        0.0001476600785010
				        Coulomb =        0.1117837312056442
				     ExtCoulomb =       -0.2562582847582517
				       Fex(H2O) =       -1.7085739615034905
				Fmix(ConvCoupling) =        0.0606153557486948
				Fmix(VDWCoupling) =       -0.0386120246125767
				       MixedFMT =        0.4330963245461804
				     PhiNI(H2O) =        1.3567882894628738
				        PsqCell =        0.0000029480067366
				            +pV =        0.0001476600785010
				        Coulomb =        0.1117802690241357
				     ExtCoulomb =       -0.2562552000107270
				       Fex(H2O) =       -1.7085770589328211
				Fmix(ConvCoupling) =        0.0606160197244208
				Fmix(VDWCoupling) =       -0.0386122646705056
				       MixedFMT =        0.4330976674744034
				     PhiNI(H2O) =        1.3567899888656441
				        PsqCell =        0.0000029424976082
FluidMinimize: Iter: 100  Etot: -0.041009975949341  |grad|_K:  8.342e-07  alpha:  3.558e-02  linmin:  1.233e-02  cgtest:  2.800e-03
FluidMinimize: None of the convergence criteria satisfied after 100 iterations.
				            +pV =        0.0001476600785010
				        Coulomb =        0.1117802690241357
				     ExtCoulomb =       -0.2562552000107270
				       Fex(H2O) =       -1.7085770589328211
				Fmix(ConvCoupling) =        0.0606160197244208
				Fmix(VDWCoupling) =       -0.0386122646705056
				       MixedFMT =        0.4330976674744034
				     PhiNI(H2O) =        1.3567899888656441
				        PsqCell =        0.0000029424976082
Fluid minimize took 1.07e+03 s.

Fluid minimization # 14 changed total free energy by -3.614719e-05

-------------------- Electronic Minimization # 14 ---------------------
ElecMinimize: Iter:   0  Etot: -276.067211299606072  |grad|_K:  6.195e-08  alpha:  1.000e+00
ElecMinimize: Iter:   1  Etot: -276.067211319559306  |grad|_K:  4.410e-08  alpha:  2.615e-01  linmin: -9.689e-01  cgtest:  9.765e-01
ElecMinimize: Encountered beta<0, resetting CG.
ElecMinimize: 	Predicted alpha/alphaT>3.000000, increasing alphaT to 7.846194e-01.
ElecMinimize: Iter:   2  Etot: -276.067211343648637  |grad|_K:  2.033e-08  alpha:  1.056e+00  linmin: -8.175e-05  cgtest:  9.663e-05
ElecMinimize: Iter:   3  Etot: -276.067211347465559  |grad|_K:  1.040e-08  alpha:  7.870e-01  linmin: -1.677e-05  cgtest: -7.777e-05
ElecMinimize: Iter:   4  Etot: -276.067211348468902  |grad|_K:  5.924e-09  alpha:  7.905e-01  linmin: -3.075e-04  cgtest:  5.375e-04
ElecMinimize: Iter:   5  Etot: -276.067211348471233  |grad|_K:  5.905e-09  alpha:  2.144e-03  linmin: -5.472e-01  cgtest:  1.000e+00
ElecMinimize: Encountered beta<0, resetting CG.
ElecMinimize: Converged (|Delta Etot|<3.247553e-09 for 2 iters).
Setting wave functions to eigenvectors of Hamiltonian

Electronic minimization # 14 changed total free energy by -4.886471e-08

---------------------- Fluid Minimization # 15 -----------------------
				            +pV =        0.0001476600785010
				        Coulomb =        0.1117802690241357
				     ExtCoulomb =       -0.2562906467515436
				       Fex(H2O) =       -1.7085770589328211
				Fmix(ConvCoupling) =        0.0606067044206213
				Fmix(VDWCoupling) =       -0.0386122646705056
				       MixedFMT =        0.4330976674744034
				     PhiNI(H2O) =        1.3567899888656441
				        PsqCell =        0.0000029424976082
FluidMinimize: Iter:   0  Etot: -0.041054737993957  |grad|_K:  8.302e-07  alpha:  1.000e+00
				            +pV =        0.0001476600785010
				        Coulomb =        0.1118295663762995
				     ExtCoulomb =       -0.2562752532876743
				       Fex(H2O) =       -1.7085324441644807
				Fmix(ConvCoupling) =        0.0606189544076869
				Fmix(VDWCoupling) =       -0.0385865775304186
				       MixedFMT =        0.4330859376583632
				     PhiNI(H2O) =        1.3567378418571132
				        PsqCell =        0.0000027861697967
				            +pV =        0.0001476600785010
				        Coulomb =        0.1117833039523890
				     ExtCoulomb =       -0.2562817186297576
				       Fex(H2O) =       -1.7085720707071848
				Fmix(ConvCoupling) =        0.0605951999962855
				Fmix(VDWCoupling) =       -0.0386091705821086
				       MixedFMT =        0.4330968472563080
				     PhiNI(H2O) =        1.3567823764817053
				        PsqCell =        0.0000029333624079
FluidMinimize: 	Step increased Etot by 9.920250e-08, reducing alpha to 4.167004e-03.
				            +pV =        0.0001476600785010
				        Coulomb =        0.1117805812444719
				     ExtCoulomb =       -0.2562897075691672
				       Fex(H2O) =       -1.7085765414163099
				Fmix(ConvCoupling) =        0.0606054661131736
				Fmix(VDWCoupling) =       -0.0386119428617218
				       MixedFMT =        0.4330975835032368
				     PhiNI(H2O) =        1.3567891941563865
				        PsqCell =        0.0000029415637954
FluidMinimize: Iter:   1  Etot: -0.041054765187633  |grad|_K:  6.214e-07  alpha:  4.167e-03  linmin: -9.695e-01  cgtest:  9.695e-01
FluidMinimize: Encountered beta<0, resetting CG.
				            +pV =        0.0001476600785010
				        Coulomb =        0.1117807196490144
				     ExtCoulomb =       -0.2562891904845391
				       Fex(H2O) =       -1.7085762091389418
				Fmix(ConvCoupling) =        0.0606048273449176
				Fmix(VDWCoupling) =       -0.0386117666370453
				       MixedFMT =        0.4330975117831536
				     PhiNI(H2O) =        1.3567887252344286
				        PsqCell =        0.0000029409757997
FluidMinimize: 	Predicted alpha/alphaT>3.000000, increasing alphaT to 1.250101e-02.
				            +pV =        0.0001476600785010
				        Coulomb =        0.1117809949206716
				     ExtCoulomb =       -0.2562881718507887
				       Fex(H2O) =       -1.7085755507287119
				Fmix(ConvCoupling) =        0.0606035751617640
				Fmix(VDWCoupling) =       -0.0386114178482867
				       MixedFMT =        0.4330973690619916
				     PhiNI(H2O) =        1.3567877979760226
				        PsqCell =        0.0000029398053683
				            +pV =        0.0001476600785010
				        Coulomb =        0.1117813213998749
				     ExtCoulomb =       -0.2562869809872257
				       Fex(H2O) =       -1.7085747742002846
				Fmix(ConvCoupling) =        0.0606021218963235
				Fmix(VDWCoupling) =       -0.0386110071890616
				       MixedFMT =        0.4330971996729522
				     PhiNI(H2O) =        1.3567867077127163
				        PsqCell =        0.0000029384155861
FluidMinimize: Iter:   2  Etot: -0.041054813200618  |grad|_K:  5.197e-07  alpha:  2.247e-02  linmin: -2.129e-02  cgtest:  2.129e-02
FluidMinimize: Converged (|Delta Etot|<3.614719e-07 for 2 iters).
				            +pV =        0.0001476600785010
				        Coulomb =        0.1117813213998749
				     ExtCoulomb =       -0.2562869809872257
				       Fex(H2O) =       -1.7085747742002846
				Fmix(ConvCoupling) =        0.0606021218963235
				Fmix(VDWCoupling) =       -0.0386110071890616
				       MixedFMT =        0.4330971996729522
				     PhiNI(H2O) =        1.3567867077127163
				        PsqCell =        0.0000029384155861
Fluid minimize took 4.11e+01 s.

Fluid minimization # 15 changed total free energy by -7.520668e-08

-------------------- Electronic Minimization # 15 ---------------------
ElecMinimize: Iter:   0  Etot: -276.067211423677691  |grad|_K:  9.822e-09  alpha:  1.000e+00
ElecMinimize: Iter:   1  Etot: -276.067211424392042  |grad|_K:  5.481e-09  alpha:  6.317e-01  linmin: -8.677e-04  cgtest:  1.269e-03
ElecMinimize: Iter:   2  Etot: -276.067211424648406  |grad|_K:  3.432e-09  alpha:  7.276e-01  linmin:  1.493e-03  cgtest: -3.901e-03
ElecMinimize: Converged (|Delta Etot|<3.614719e-07 for 2 iters).
Setting wave functions to eigenvectors of Hamiltonian

Electronic minimization # 15 changed total free energy by -9.706014e-10

Fluid<-->Electron self-consistency loop converged to 1.000000e-07 hartrees after 15 minimization pairs.

# Ionic positions in cartesian coordinates:
ion H  -1.047296764470864   0.505011685683666   0.697085793699727 0
ion H   0.214448544796136  -2.422478363062334  -0.827423329252273 0
ion H  -4.877477439494865  -4.813950018135333  -0.107407515681273 0
ion H  -2.257283464594865  -5.964258122527334  -0.804428584632273 0
ion H  -5.059219814367865   3.168096306830666  -2.293710814963273 0
ion H  -7.591376903069864   3.676271658873666  -0.504152659045273 0
ion H  -5.439521111766864   2.139223390843666   4.828791545525727 0
ion H  -2.318435625015864   1.760213870436666   5.004476990487727 0
ion H  -7.141073599642866  -1.310277221558334   0.493864077327727 0
ion H  -4.746321088780864  -0.776666937843334   1.771255619135727 0
ion H  -0.152352353978864   2.266525244730666   7.858277003771727 0
ion H   1.778451246801136   1.008768990405666   5.840272276187727 0
ion H  -0.468985674319864   4.481210961575665  -7.482615295532273 0
ion H   1.590525955503135   2.554038598005666  -6.781210678748273 0
ion H   3.152750099113136  -0.136629159526334   0.628030883202727 0
ion H   5.115896828650135  -0.572201561564334   2.771855987871727 0
ion H   4.795615479745136   1.497730945796666  -3.533811949626273 0
ion H   3.959522151478135  -1.015612409136334  -5.145865696009273 0
ion H   0.637964641754135  -4.898825156719334   0.754448639663727 0
ion H   3.064669789991135  -6.694075921194334   4.662914780816727 0
ion H   2.026061322510135  -6.029844739843332   7.039061368423727 0
ion H   2.669060270086136  -4.703584428965333  -3.620730316669273 0
ion H   5.283395328962134  -4.773309560379333  -5.031816879477272 0
ion H   5.605371032300134  -0.874416284513334   7.048637002774727 0
ion H   3.498810894856135  -3.004567971353334   5.615178692038727 0
ion H   0.267020107450135   7.305435985674666   3.038259570609727 0
ion H   1.565948754815135   4.829479060956666   4.064160924127727 0
ion H  -3.040936806488864  -0.177461791357334  -3.111819146643274 0
ion H  -2.412717902883864   1.647882862658666  -5.445603219399272 0
ion H   1.372204977736136   6.025287699830666  -0.508232467450273 0
ion H   0.770589470988135   3.361907234702666  -1.792511595037273 0
ion O   0.329395846071135   0.351448923147666  -0.492852632194273 0
ion O  -4.021148276120864  -6.516320817753334  -0.222823738823273 0
ion O  -5.819155514911865   4.294623067706665  -0.987722276209273 0
ion O  -4.028309291527864   0.927166347079666   4.554645755919727 0
ion O  -5.438207488803865  -1.932101628932334   0.545184648182727 0
ion O   0.483769512139135   2.500844011502665   6.130185182053727 0
ion O  -0.095857091759864   2.679157872873664  -7.547443040108271 0
ion O   5.030217020204135  -0.436981366792334   0.840779753405727 0
ion O   4.453308129575135   0.889964491761666  -5.227744954675273 0
ion O   0.429502971369136  -4.400356318830334  -0.994478817204273 0
ion O   1.711825465523136  -5.496109241273333   5.234363309174727 0
ion O   3.438179303378136  -4.267224936401335  -5.252230978191273 0
ion O   4.157805513780136  -1.145219177325334   5.849059638384725 0
ion O   1.840835656460136   6.497980917415664   3.080803804115727 0
ion O  -3.788528282876864   0.972098414282666  -4.362853106260273 0
ion O   1.265003232818136   5.203314482687666  -2.099741113998273 0


# Forces in Cartesian coordinates:
force H  -0.005804575819199   0.007228630876727   0.007811703807675 0
force H   0.005515483614069   0.013408157032447  -0.002709272598427 0
force H   0.009907225337513  -0.012691186093412   0.004627502734432 0
force H  -0.019642442109331  -0.001849753640161   0.005651344899815 0
force H  -0.005944222603956  -0.007869589409961   0.000948095268477 0
force H   0.041780734694057   0.007647742487928  -0.016432703882190 0
force H   0.018980665634120  -0.007126989713895  -0.002164123526631 0
force H  -0.021727314700164  -0.006724930296254  -0.005375728416904 0
force H  -0.020898506448568   0.001560304575544  -0.007381456371248 0
force H   0.019877780725683   0.015550129382742   0.026892139915263 0
force H   0.006737204809012   0.003102867689201  -0.000415924528928 0
force H  -0.016204350382241   0.020108501466939   0.011277930476098 0
force H  -0.000793366057935   0.003389724807477  -0.001192095525641 0
force H   0.008520621189268  -0.007943533657276   0.009101048132809 0
force H  -0.002647777737282   0.002626429589325  -0.009328860361187 0
force H  -0.000376935115910   0.000970654265811  -0.028193948319756 0
force H  -0.004947038662656  -0.005256932279458   0.010436957475648 0
force H   0.007459388792775   0.028165868879232   0.006623740618685 0
force H   0.007450541687750  -0.003320949079088   0.008658763476905 0
force H  -0.013167498358681   0.010467420953336  -0.014454203910803 0
force H  -0.019919338588819   0.013292640394368  -0.010755172463730 0
force H  -0.009103293436014   0.001982268747999   0.013628811292334 0
force H  -0.033356651773999   0.007259893228617  -0.005017173019422 0
force H  -0.021679979983375  -0.013920577689360  -0.013575091578345 0
force H   0.010103934528814   0.024649806189574   0.010223138530390 0
force H  -0.041711486783824   0.018362850728983   0.003762194766083 0
force H  -0.002534496475053   0.032437552988085  -0.013734733699615 0
force H   0.007375350993288   0.006041378644090  -0.000127866933509 0
force H   0.007923278176790  -0.003881428200081   0.002812782569277 0
force H   0.002557478517761   0.002988672256369   0.034270070695906 0
force H   0.004126077021466   0.011313764729264   0.010197346667434 0
force O  -0.000334858732396  -0.009089201518388  -0.008670149739081 0
force O   0.006466080678875   0.001392754539405  -0.010654893200543 0
force O  -0.037598871162191   0.001128886568668   0.015554332908276 0
force O   0.000785570691757   0.011992004834692   0.004479750660434 0
force O  -0.008147515902943  -0.007992986707091  -0.018801166929988 0
force O   0.018133068039861  -0.027681811384670  -0.005967346961522 0
force O  -0.005917946423367   0.003550010628140  -0.006547260368142 0
force O   0.007916814269656  -0.000175080794257   0.028903681059353 0
force O  -0.005917941766748  -0.023270630116489  -0.019446554236893 0
force O   0.001378553507498  -0.009455504061199  -0.008739500421021 0
force O   0.036678441991785  -0.027766843232822   0.026351616598327 0
force O   0.042461925399802  -0.005939590814640  -0.007248335063907 0
force O   0.004739627795916  -0.005997636269007   0.006691915096234 0
force O   0.041897397450714  -0.042237371515332   0.014377110672265 0
force O  -0.015007600899103  -0.001445915769267  -0.002980881342175 0
force O  -0.004396267069940  -0.019248323214491  -0.043913742629943 0

# Energy components:
   A_diel =       -0.0410546299988204
   Eewald =      404.6503638265588734
       EH =      646.1148467303885354
     Eloc =    -1427.8323203511390602
      Enl =       36.0711678946258587
      Exc =      -69.6017366151446453
 Exc_core =        1.0408594841432899
       KE =      133.6965439642441993
  MuShift =       -0.1658817283267600
-------------------------------------
     Etot =     -276.0672114246484057

IonicMinimize: Iter:   0  Etot: -276.067211424648406  |grad|_K:  0.000e+00
IonicMinimize: Converged (|grad|_K<1.000000e-04).

#--- Lowdin population analysis ---
# oxidation-state H +0.358 +0.356 +0.379 +0.365 +0.386 +0.410 +0.430 +0.377 +0.440 +0.396 +0.456 +0.383 +0.443 +0.404 +0.366 +0.362 +0.414 +0.378 +0.402 +0.459 +0.461 +0.403 +0.438 +0.455 +0.379 +0.446 +0.389 +0.398 +0.387 +0.391 +0.374
# oxidation-state O -0.800 -0.856 -0.786 -0.734 -0.706 -0.673 -0.727 -0.830 -0.752 -0.705 -0.680 -0.719 -0.672 -0.760 -0.734 -0.817


Dumping 'W15OH1-confining.wfns' ... done
Dumping 'W15OH1-confining.fluidState' ... done
Dumping 'W15OH1-confining.ionpos' ... done
Dumping 'W15OH1-confining.lattice' ... done
Dumping 'W15OH1-confining.n' ... done
Dumping 'W15OH1-confining.eigenvals' ... done
Dumping 'W15OH1-confining.Ecomponents' ... done
				            +pV =        0.0001476600785010
				        Coulomb =        0.1117813213998749
				     ExtCoulomb =       -0.2562873630768578
				       Fex(H2O) =       -1.7085747742002846
				Fmix(ConvCoupling) =        0.0606026871877532
				Fmix(VDWCoupling) =       -0.0386110071890616
				       MixedFMT =        0.4330971996729522
				     PhiNI(H2O) =        1.3567867077127163
				        PsqCell =        0.0000029384155861
Dumping W15OH1-confining.fluidN_H2O_O... Done.
Dumping W15OH1-confining.fluidN_H2O_H... Done.
				            +pV =        0.0001476600785010
				        Coulomb =        0.1117813213998749
				     ExtCoulomb =       -0.2562873630768578
				       Fex(H2O) =       -1.7085747742002846
				Fmix(ConvCoupling) =        0.0606026871877532
				Fmix(VDWCoupling) =       -0.0386110071890616
				       MixedFMT =        0.4330971996729522
				     PhiNI(H2O) =        1.3567867077127163
				        PsqCell =        0.0000029384155861
Dumping W15OH1-confining.fluidNspherical_H2O_O... Done.
Dumping W15OH1-confining.fluidNspherical_H2O_H... Done.
Dumping 'W15OH1-confining.fluidDebug'... 	Done.
End date and time: Thu Apr 28 17:51:41 2016  (Duration: 0-2:32:21.29)
Done!

PROFILER:             augmentDensityGrid     0.215882 +/-     0.135089 s,  258 calls,     55.697577 s total
PROFILER:         augmentDensityGridGrad     0.691302 +/-     0.548610 s,  140 calls,     96.782248 s total
PROFILER:        augmentDensitySpherical     0.010182 +/-     0.002654 s,  258 calls,      2.627006 s total
PROFILER:    augmentDensitySphericalGrad     0.005998 +/-     0.001264 s,  140 calls,      0.839685 s total
PROFILER:                 augmentOverlap     0.157538 +/-     0.040816 s,  400 calls,     63.015198 s total
PROFILER:                     diagouterI     0.734286 +/-     0.001540 s,  129 calls,     94.722879 s total
PROFILER:              EdensityAndVscloc     0.349078 +/-     0.471513 s,  129 calls,     45.031007 s total
PROFILER:                     EnlAndGrad     0.012290 +/-     0.000928 s,  260 calls,      3.195363 s total
PROFILER:            ExCorrCommunication     0.000011 +/-     0.000066 s, 5876 calls,      0.067013 s total
PROFILER:               ExCorrFunctional     0.010781 +/-     0.001392 s, 5612 calls,     60.503689 s total
PROFILER:                    ExCorrTotal     0.017923 +/-     0.020848 s, 5612 calls,    100.581276 s total
PROFILER:       FluidMixture::operator()     5.114357 +/-     0.017796 s, 1681 calls,   8597.234044 s total
PROFILER:                   Idag_DiagV_I     1.399861 +/-     0.001374 s,   69 calls,     96.590439 s total
PROFILER:                    initWeights     4.718143 +/-     0.000000 s,    1 calls,      4.718143 s total
PROFILER:            matrix::diagonalize     0.002899 +/-     0.000361 s,  200 calls,      0.579763 s total
PROFILER:     RadialFunctionR::transform     0.062332 +/-     0.127054 s,   46 calls,      2.867266 s total
PROFILER:                    reduceKmesh     0.000001 +/-     0.000000 s,    1 calls,      0.000001 s total
PROFILER:               WavefunctionDrag     0.723997 +/-     0.000000 s,    1 calls,      0.723997 s total
PROFILER:                            Y*M     0.034460 +/-     0.021515 s,  890 calls,     30.669281 s total
PROFILER:                          Y1^Y2     0.099598 +/-     0.016458 s,  609 calls,     60.655101 s total

MEMUSAGE:                   ColumnBundle     2.659656 GB
MEMUSAGE:        complexScalarFieldTilde     0.040889 GB
MEMUSAGE:                         matrix     0.007775 GB
MEMUSAGE:                    ScalarField     1.185775 GB
MEMUSAGE:               ScalarFieldTilde     0.476938 GB
MEMUSAGE:                          Total     3.051596 GB
